Formula,Space Group,Band Gap,a,b,c,a=b
CrGeTe3,P-31m,0.4845,6.9091,6.9091,23.444,TRUE
IO2,P2_1/c,1.7444,6.9121,8.2743,24.518,FALSE
TlBr3,C2/m,1.724,6.9125,6.9125,22.727,TRUE
BiO2,P3m1,0.1473,6.9129,6.9129,22.984,TRUE
Ga2Te3,P1,0.2045,6.9136,8.653,38.174,FALSE
InI,P4/nmm,2.2083,6.914,6.9097,23.14,FALSE
MgSb3P3O13,P2_1/m,2.2859,6.916,11.373,26.37,FALSE
TlBi,P-1,0,6.9163,6.1047,23.124,FALSE
TiI3,P-31m,0,6.918,6.918,23.034,TRUE
AlSiTe3,P-31m,1.3273,6.9198,6.9198,23.64,TRUE
Tl2S3,P1,0.0277,6.92,8.1303,36.98,FALSE
BiI3,Pmn2_1,1.6791,6.9223,8.5386,23.123,FALSE
Bi2Rh3S2,C2/m,0,6.9235,6.9235,23.621,TRUE
Si3Cl8,P1,1.1319,6.9257,10.44,33.122,FALSE
Pb3Cl8,P1,0.659,6.9276,5.4565,34.319,FALSE
TiI4,P1,0.1121,6.9306,7.6074,23.038,FALSE
Eu(AlCl4)2,P2/c,1.658,6.9337,12.511,24.935,FALSE
B2Te3,P1,0,6.9347,6.8755,38.829,FALSE
Nb3TeCl7,P3m1,0.7476,6.9356,6.9356,23.727,TRUE
Nb3IrSe8,C2,0,6.9368,6.9445,23.682,FALSE
Er2Te5O13,P-1,3.0654,6.9429,8.575,30.98,FALSE
Pb3N4,P3m1,0.3201,6.9436,6.9436,20.011,TRUE
InTeClO3,Pmna,3.2566,6.9436,7.1641,26.699,FALSE
FeI4,P2_1/c,0,6.9499,7.3054,23.48,FALSE
BiCl3,P-31m,3.4188,6.9507,6.9507,23.442,TRUE
BiI5,Pmma,0,6.952,11.519,23.858,FALSE
GdCl3,C2/m,2.3127,6.9522,6.9522,23.287,TRUE
Nb9IrSe20,P-1,0,6.9539,15.239,23.467,FALSE
CoH6(SeO4)2,P2_1/c,2.9574,6.9552,8.4277,26.398,FALSE
VI3,P-31m,0.087,6.9573,6.9573,22.719,TRUE
ZnCrF5,P2/c,3.4739,6.9626,5.6949,23.821,FALSE
Sr(AlCl4)2,P2/c,5.5657,6.9661,12.57,24.953,FALSE
SrTeO3,P2_1/c,3.9009,6.9665,8.4338,24.689,FALSE
Tc2I7,P2/c,0.0006,6.9688,13.64,23.69,FALSE
BAs5,Pmc2_1,0,6.9738,11.846,26.806,FALSE
Na3InCl6,P312,3.8717,6.9761,6.9761,23.049,TRUE
Ho2Te5O13,P-1,3.1023,6.9767,8.593,30.609,FALSE
NbI4,P2_1/c,0.0006,6.978,10.293,25.791,FALSE
LiFeF5,Pbcm,0.8732,6.9794,9.9032,23.884,FALSE
AlI3,C2/m,2.248,6.9794,6.9796,23.222,TRUE
BAs3,P-3m1,0,6.9796,6.9796,21.198,TRUE
La2(BiO2)7,P1,0,6.982,6.9471,26.688,FALSE
TaI4,P2_1/c,0,6.9833,10.259,25.683,FALSE
LiSb(PO3)4,P2/c,3.708,6.9834,10.234,26.634,FALSE
SbN9,P-3,2.7253,6.9838,6.9838,24.954,TRUE
ZrI3,C2/m,0.3195,6.9861,6.9861,22.903,TRUE
ZrI3,P-1,0.3191,6.9872,6.9806,24.272,FALSE
Tl2Ni(CN)4,Pmna,2.482,6.9879,9.5555,24.742,FALSE
Nb2TlPS10,Pc,1.3499,6.9904,12.904,28.929,FALSE
Si3Sb2O9,P-6,4.665,6.9915,6.9915,24.916,TRUE
GeP3,P-3m1,0,6.9967,6.9967,21.173,TRUE
BiCl3,P2_1/c,3.4332,6.9972,11.945,23.613,FALSE
PdI2,P2_1/c,1.1895,6.9973,8.5091,25.961,FALSE
TeCF2,P-1,1.6149,6.9976,7.3222,24.142,FALSE
PI3,C2/m,1.8955,6.9976,6.9976,23.533,TRUE
NbI3,P-31m,0.005,6.9986,6.9986,22.719,TRUE
Hg2IO,C2,1.5463,7.0011,9.6438,21.256,FALSE
FePb2(CN)6,P-3,3.3292,7.0011,7.0011,26.547,TRUE
Se2O5,P2_1/c,2.991,7.0015,13.812,22.231,FALSE
ZnH6(SeO4)2,P2_1/c,3.9154,7.0064,8.4208,26.39,FALSE
Al2CdCl8,Pc,4.0137,7.0064,12.754,27.199,FALSE
SbCl3,P2_1/c,3.1483,7.0068,11.998,23.615,FALSE
TiTlPS5,P-1,1.1585,7.0089,10.391,22.855,FALSE
AsCl3,P2_1/c,3.6457,7.0098,11.332,23.643,FALSE
VI4,P2_1/c,0,7.0111,12.909,24.439,FALSE
KNbCl6,Pmn2_1,2.1855,7.0112,9.0135,27.144,FALSE
Dy2Te5O13,P-1,3.0591,7.0112,8.5997,31.016,FALSE
BaCaI4,P2_12_12,3.9699,7.0169,8.0509,28.746,FALSE
BCl3,Pmc2_1,4.5325,7.0185,5.8237,22.613,FALSE
Y2Te5O13,P-1,3.0667,7.0195,8.6206,31.022,FALSE
Sb(PO3)4,P2_1,0.2551,7.0205,7.8548,29.096,FALSE
TeF,P-1,0,7.0224,6.8444,25.289,FALSE
SbS,P2_1/c,0.9122,7.0263,7.4598,22.075,FALSE
PtI2,P2_1/c,1.4719,7.0267,8.6991,25.887,FALSE
SrPH3O4,P2_1/c,4.4393,7.0269,8.1713,27.231,FALSE
Si3Bi2O9,P-6,4.2462,7.0287,7.0287,24.325,TRUE
RbBrF4,P4/mbm,3.3947,7.0295,7.0295,22.446,TRUE
SbBr3,P-31m,2.4434,7.0339,7.0339,23.649,TRUE
LiSb(PO3)4,P2_1,4.6192,7.035,8.2413,30.242,FALSE
GaI3,C2/m,1.2814,7.0357,7.0322,23.222,FALSE
InN,P2_1/c,0.6444,7.037,7.0524,20.098,FALSE
SbBr3,P2_1/c,2.4263,7.0381,12.137,23.608,FALSE
BeI2,P-1,2.5322,7.0397,7.0506,23.509,FALSE
ZnI2,P-3,1.9365,7.0402,7.0402,23.168,TRUE
InN,P4/mbm,0.6341,7.0452,7.0452,"20.0,""",TRUE
MgCl2,Cmmm,5.4756,7.0467,7.0892,23.447,FALSE
AlAs5,Pmc2_1,0.5004,7.0478,12.541,26.806,FALSE
Sc2Te3,P1,0.2784,7.0482,7.3381,21.514,FALSE
GaAs5,Pmc2_1,0.8872,7.0483,12.67,26.806,FALSE
AsBr3,P2_1/c,2.8602,7.0527,11.712,23.613,FALSE
Hg3SO6,P1,0.9359,7.0564,7.0076,21.993,FALSE
AgIrF7,Pmc2_1,0,7.0565,7.79,26.591,FALSE
RbPaF6,Pmma,4.038,7.0571,8.0087,22.533,FALSE
Sr2C,P4/nmm,0,7.0576,7.0591,28.824,FALSE
HgBr2,P-3,2.0855,7.0596,7.0596,23.123,TRUE
K2U3(IO5)4,P-1,1.8222,7.0639,7.9982,30.108,FALSE
MoI3,P-31m,0.9126,7.0647,7.0647,22.871,TRUE
AsI3,Pmn2_1,1.6189,7.0653,8.214,23.123,FALSE
Rb2U3(IO5)4,P-1,1.8146,7.0659,7.8758,30.747,FALSE
Li2Sn(PO3)4,P2,1.3024,7.0663,9.2296,26.026,FALSE
InAs5,Pmc2_1,0.9208,7.0685,12.901,26.806,FALSE
Li3SbS3,P-3,2.6234,7.071,7.071,25.917,TRUE
Ta2O5,Pmn2_1,2.6625,7.0712,3.8738,26.154,FALSE
In2Se3,P-62m,1.3535,7.0715,7.0717,20.011,TRUE
TlAs5,Pmc2_1,1.0223,7.0733,13.028,26.806,FALSE
KTeF5,Pbcm,5.2032,7.0766,12.829,24.557,FALSE
NiBi2,P-3m1,0,7.0767,7.05,22.86,FALSE
SeCl,P-1,1.3186,7.0769,8.6565,25.151,FALSE
Ta3Br8,P3m1,0.2752,7.0773,7.0773,23.495,TRUE
BiTeIO3,P2_1/c,2.4013,7.0802,8.046,26.641,FALSE
CeP3H8O7,P-1,0.3119,7.0806,9.5853,28.178,FALSE
IClOF,P2_1/c,1.9773,7.0811,7.496,30.59,FALSE
K2O,P31m,0.48,7.0824,7.081,22.643,FALSE
TcTe2,P-1,0.749,7.0837,7.2313,23.532,FALSE
SnCl4,P2/c,2.4075,7.0849,6.2413,22.457,FALSE
BiO2,P1,0,7.0853,7.2748,33.043,FALSE
Bi(TeBr2)2,P-1,0.8142,7.0873,11.362,23.831,FALSE
WI3,P-31m,0.7545,7.0889,7.0889,22.871,TRUE
AlBr3,Pmc2_1,3.0793,7.0903,6.5622,22.613,FALSE
YbI3,P-3,0,7.0922,7.0953,22.858,FALSE
ReTe2,P-1,0.9478,7.0976,7.2362,23.453,FALSE
Ba(AlCl4)2,P2/c,5.5913,7.0986,12.459,25.349,FALSE
Yb2Te5O13,P-1,1.9871,7.1008,8.9109,29.184,FALSE
Li3BiS3,P-3,2.7006,7.101,7.101,26.445,TRUE
TlPt2S3,P-3m1,1.662,7.1078,7.1078,24.608,TRUE
TeP,P2_1/c,1.623,7.1083,6.8911,22.075,FALSE
HfI4,P-1,2.0792,7.1092,8.3402,24.065,FALSE
YBr3,P-31m,4.0441,7.1099,7.1099,23.281,TRUE
Nb2O5,Pmn2_1,2.1598,7.1109,3.8864,26.154,FALSE
UBr4,C2/m,0.1916,7.111,7.111,25.183,TRUE
Ta3SBr7,P3m1,0.855,7.111,7.1123,23.462,FALSE
K2RuBr6,Pmn2_1,0,7.1127,10.1,27.708,FALSE
As2Pd,P-3m1,0,7.1141,7.1141,22.86,TRUE
Mg(InSe2)2,P-1,1.2458,7.117,8.2104,30.275,FALSE
Mn3Cl8,C2/m,0,7.1195,7.1419,22.175,FALSE
TiI3,P-1,0.762,7.1204,10.058,23.539,FALSE
LaP3H8O7,P-1,4.9742,7.1261,9.689,28.173,FALSE
Au2Se2O7,Pba2,1.1555,7.1275,11.376,22.612,FALSE
C3N4,P-6m2,1.1725,7.1291,7.1291,"20.0,""",TRUE
VI5,P-1,0.2405,7.1305,7.2364,30.548,FALSE
GaTeI7,Pc,1.9303,7.132,19.214,24.319,FALSE
In2S3,P1,0.11,7.1323,7.4944,38.448,FALSE
Si(PbSe2)2,P2_1/c,1.6298,7.1325,18.612,23.161,FALSE
NaBi5O8,P-1,2.2869,7.1328,7.2968,28.279,FALSE
MnTe2,C2/m,0.1922,7.1347,7.0121,23.829,FALSE
Tl2Se3,P-62m,0.2414,7.1374,7.1374,20.011,TRUE
In2Te3,P1,0,7.1396,9.6228,37.74,FALSE
InSiTe3,P-31m,0.8587,7.1403,7.1403,23.856,TRUE
RbV3(SeO6)2,P3,2.3318,7.141,7.141,25.243,TRUE
CaGeO3,P-1,3.5625,7.1429,7.8188,29.242,FALSE
TlV3(SeO6)2,P3,2.3566,7.1431,7.1431,24.318,TRUE
KCrClO3,P2_1/c,2.7736,7.1461,7.7274,27.404,FALSE
NaSb5O8,P1,2.9357,7.1473,7.3064,23.775,FALSE
InTeCl,P2_1/c,1.9407,7.1475,13.74,26.06,FALSE
Bi6B10O21,P-1,1.5769,7.1476,15.186,25.15,FALSE
RbC2,P4mm,0.9335,7.1497,7.1497,24.32,TRUE
KV3(SeO6)2,P3,2.3827,7.15,7.15,25.244,TRUE
Al2CuCl8,P2_1/c,0.5574,7.1517,12.105,24.843,FALSE
Hg3SeO6,P1,1.0625,7.1524,7.1435,22.212,FALSE
Nb3SBr7,P3m1,0.7879,7.1548,7.1548,23.443,TRUE
AlTeI7,Pc,1.9385,7.157,19.274,24.151,FALSE
CrI5,Cmmm,0,7.1578,5.9078,23.822,FALSE
Br3N,P2_1/c,1.3628,7.1608,10.617,23.706,FALSE
Y2Se3,P1,1.6425,7.1633,7.4096,22.168,FALSE
AsI3,P2_1/c,2.1016,7.1657,12.364,23.612,FALSE
Mo3Se2ClO8,P2_1,1.4081,7.17,10.015,25.801,FALSE
Ga2Se3,P1,0.9225,7.1716,7.376,38.547,FALSE
Tl2Pt(CN)4,P2_1/c,2.9434,7.1718,9.7775,25.042,FALSE
Ga2CuCl8,P2_1/c,0.576,7.1743,12.152,24.866,FALSE
CrBiO4,P2_1/c,1.6603,7.1743,8.3803,24.119,FALSE
SnP3,P-3m1,0.4606,7.1758,7.1758,22.432,TRUE
BiBr3,C2/m,2.9703,7.177,7.177,23.476,TRUE
LiBi(PO3)4,P1,3.9569,7.1803,6.7574,25.809,FALSE
AsI3,P-3,2.17,7.181,7.181,23.363,TRUE
Sr5Co,Pmc2_1,0,7.1826,8.0339,25.788,FALSE
Si3I8,P1,1.4085,7.1837,8.233,34.564,FALSE
PbCl4,P-1,1.2253,7.1867,6.3771,22.507,FALSE
Ge5F12,P2_1/c,4.0551,7.1868,8.1241,26.668,FALSE
ScI3,C2/m,1.9635,7.189,7.189,23.327,TRUE
NbTeI3,P2/c,0.5801,7.1933,13.691,25.907,FALSE
NbCl5,P1,0.5572,7.1938,7.9313,23.969,FALSE
FeSn2(CN)6,P-3,3.6406,7.1958,7.1958,25.977,TRUE
SbBr5,P2/m,0.0172,7.1965,5.5451,23.895,FALSE
BrO3,P-1,1.6538,7.1972,7.2156,22.685,FALSE
GdBr3,P-31m,2.2791,7.1976,7.1976,23.221,TRUE
GaP3,P-3m1,0.7488,7.1994,7.1994,21.198,TRUE
Bi2Pd,P-3m1,0,7.2007,7.2007,22.86,TRUE
K2PAuS4,P2_1/m,1.041,7.2016,7.2237,33.642,FALSE
BaSn4O7,P3m1,0.5962,7.2025,7.2025,25.296,TRUE
BiBr3,P2_1/c,2.9482,7.2042,12.391,23.518,FALSE
Re3Br8,C2,0.149,7.2047,7.2071,22.168,FALSE
Rb2O,P31m,0.3167,7.205,7.2045,22.809,FALSE
Sr5Rh,Pmc2_1,0,7.2096,8.0459,25.788,FALSE
KSb3,P2/m,0,7.2116,8.2681,"20.0,""",FALSE
Tc3Br8,Cm,0.0098,7.2131,7.2181,22.111,FALSE
Bi2Pt,P-3m1,0,7.222,7.222,22.835,TRUE
Sb2Pt,P-3m1,0,7.2225,7.2221,22.86,TRUE
Ge3Sb2O9,P-6,3.9732,7.2313,7.2313,25.093,TRUE
Ag2Bi2S3Cl2,P-1,1.5629,7.2314,11.269,28.786,FALSE
AlP3,P-3m1,0.718,7.2331,7.2331,21.198,TRUE
SCl,P-1,2.2784,7.243,8.8501,25.125,FALSE
VBr4,P-1,0.0035,7.2466,6.3146,22.58,FALSE
SrBr2,C2,4.213,7.2468,5.1184,26.413,FALSE
B2S,P3,0.057,7.2482,7.2482,23.564,TRUE
CuB2(CN)8,C2/m,0.8842,7.249,7.5787,29.737,FALSE
BiF3,Cmcm,3.8549,7.2499,7.0684,24.815,FALSE
Al2Te3,P2_1/c,1.8108,7.2574,12.866,24.259,FALSE
GaI3,Pmc2_1,2.2269,7.2629,6.8493,22.613,FALSE
CuH2(SeO3)2,P2_1/c,0.0729,7.2637,8.7612,23.561,FALSE
ZnFeF5,P2/c,3.2269,7.2649,5.4313,23.767,FALSE
P3Pb,P-3m1,0.5306,7.2663,7.2664,21.68,TRUE
LiHSO4,P2_1/c,5.3467,7.2681,8.2749,26.72,FALSE
Al2Se3,P1,0.8348,7.2715,7.1949,38.475,FALSE
NaSb(PS3)2,P2_1/c,1.8573,7.2718,11.45,29.418,FALSE
MnAs2F12,P-4,4.2021,7.2735,7.2735,23.587,TRUE
Ga2Te3,P-62m,1.4088,7.2753,7.2755,20.011,TRUE
Ge3Bi2O9,P-6,3.9258,7.2795,7.2795,25.496,TRUE
Li4Ni(PO3)6,P1,3.0831,7.281,7.2931,29.776,FALSE
YbI3,C2/m,0.188,7.2838,7.7056,22.454,FALSE
PbSeO4,P2_1/c,3.4876,7.2858,8.9109,24.145,FALSE
InI3,C2/m,1.692,7.288,7.288,22.723,TRUE
TlN,P4/mbm,0,7.289,7.289,"20.0,""",TRUE
TeAuI,P2_1/c,1.0945,7.2908,7.7264,24.72,FALSE
GeI3,P1,0.9914,7.3117,7.3534,24.438,FALSE
VOF3,Pca2_1,3.1697,7.3118,8.1903,22.993,FALSE
SeBr,P-1,1.1929,7.3144,9.0184,25.155,FALSE
ZnCl2,P-4m2,4.478,7.322,7.322,26.753,TRUE
As2Pt,C2/m,0,7.3241,6.7952,22.895,FALSE
Cd(PO3)2,P2_1,3.1924,7.326,6.4612,24.923,FALSE
Sr5Ir,Pmc2_1,0,7.3263,8.0399,25.788,FALSE
LiSb(PO3)4,P2/c,2.8648,7.3274,9.9009,28.629,FALSE
SrF2,P-1,5.8589,7.3292,7.3834,23.515,FALSE
VBr5,P1,0,7.3301,11.015,25.802,FALSE
TaBr4,P1,0.7776,7.331,7.3049,22.612,FALSE
Li2Cr2O7,P-1,2.7032,7.3367,10.573,22.11,FALSE
Sn3I8,P1,0.345,7.3395,8.2157,33.797,FALSE
SiAs3,P-3m1,0,7.3443,7.3443,21.405,TRUE
TlPd2Se3,P-3m1,0.9563,7.3487,7.3487,24.714,TRUE
KAs2F7,P2_1/c,4.8013,7.35,8.5812,26.944,FALSE
ThCl4,P2_1/c,3.1448,7.3507,12.554,24.898,FALSE
Ag2WS4,P2_1/m,0.9264,7.3521,7.2582,23.112,FALSE
Ge3I8,P1,0.5217,7.3561,8.3567,33.626,FALSE
CdCl4,Pmna,0.2847,7.3564,5.2475,24.809,FALSE
Li2UI6,P-31m,0.1932,7.3633,7.3633,23.471,TRUE
BBr,Aem2,2.5969,7.3645,7.402,23.14,FALSE
InSiTe3,P3,0,7.3724,7.3724,21.013,TRUE
PtC4,Cmmm,1.208,7.3764,4.8198,22.926,FALSE
TeAs,P2_1/c,0.943,7.3765,7.2313,22.075,FALSE
LaCl3,C2/m,4.0697,7.3815,7.3815,23.329,TRUE
Tl2Te3,P1,0.0485,7.3824,9.2866,37.195,FALSE
I3N,P2_1/c,0.4491,7.389,11.192,23.595,FALSE
BiI4,P2/c,0,7.3933,7.8099,22.677,FALSE
CaSnS3,P2_1/c,1.765,7.3938,7.939,31.326,FALSE
Mn3Br8,C2/m,0,7.3953,7.4589,22.141,FALSE
BSb,P4/mbm,0.2337,7.3965,7.3965,"20.0,""",TRUE
Hg3AsS4Cl,P3m1,2.1443,7.3966,7.3966,23.05,TRUE
LiFeP2O7,P-1,2.5292,7.4069,8.5946,25.211,FALSE
TlI3,C2/m,0.801,7.4105,7.4076,23.221,FALSE
TaTe2,P-6m2,0,7.4125,7.4125,23.396,TRUE
NbBr4,Pmna,0,7.4136,6.0661,22.503,FALSE
Sr,Cmmm,0,7.4179,7.4179,"20.0,""",TRUE
Sn2P3O10,C2,0.0121,7.4274,7.4274,24.506,TRUE
BCl,Aem2,2.8064,7.4291,7.4947,23.14,FALSE
MgBr2,P-1,4.3256,7.4302,7.4589,23.508,FALSE
NbBr5,P1,0.4766,7.4341,7.4156,25.36,FALSE
NbI4,P1,0,7.4353,7.427,22.912,FALSE
Cu2WO4,P-1,0.9018,7.4359,8.3362,25.736,FALSE
VF4,Pmmn,2.3159,7.4371,7.5733,23.484,FALSE
Bi3Se2ClO8,Pmmn,0.7361,7.4372,10.63,27.089,FALSE
BCl,Pbcm,2.4297,7.4401,5.2578,23.094,FALSE
GeCl4,P1,3.8229,7.446,7.4186,22.312,FALSE
Hg3AsS4Br,P3m1,2.0762,7.4473,7.4473,23.204,TRUE
BBr,Pbcm,2.1377,7.4494,5.5532,23.094,FALSE
GeAs3,P-3m1,0,7.4507,7.4507,21.68,TRUE
TlPt2Se3,P-3m1,1.411,7.4548,7.4548,24.183,TRUE
V3Br8,P-3m1,0,7.4563,7.4563,23.495,TRUE
Cu2WO4,P-1,0.7605,7.459,8.1393,26.726,FALSE
Ba2C,Pmmn,0,7.46,7.4589,28.824,FALSE
As2S5,P2_1/c,0.0958,7.4659,7.1557,32.144,FALSE
CdF2,P-4m2,3.9821,7.4669,7.4669,26.753,TRUE
LiMnF4,P2_1/c,1.8173,7.4719,7.7222,24.359,FALSE
CaPbI4,P2_1/c,2.4553,7.4725,14.356,27.542,FALSE
HfTe3Se8,P-1,0.5355,7.4726,7.6109,35.327,FALSE
NCl3,P2_1/c,1.9913,7.473,9.2642,24.569,FALSE
PCl3,P2_1/c,3.7914,7.4734,11.104,23.755,FALSE
SbI3,P-31m,2.1727,7.4755,7.4755,23.602,TRUE
HgI2,P-3,1.3131,7.4772,7.4772,23.168,TRUE
RbCrClO3,P2_1/c,2.7945,7.4908,8.0087,27.379,FALSE
TaBr5,P1,0.4129,7.491,7.3666,25.167,FALSE
Te5N2,P2_1/c,0,7.4983,7.065,32.097,FALSE
AsF3,P2_1/c,5.1725,7.5,7.6522,24.6,FALSE
SbI3,P2_1/c,2.0988,7.5012,12.986,23.61,FALSE
VZnF5,P-1,1.1654,7.5031,7.8338,20.404,FALSE
S5N2,P2_1,0.3795,7.504,6.0622,32.593,FALSE
In2Se3,P1,0.3263,7.5095,7.7032,38.461,FALSE
YI3,P-31m,2.8543,7.5105,7.5105,23.545,TRUE
KSb2F7,P2_1/c,4.2587,7.5135,8.2666,28.438,FALSE
Y2S3,C2,2.4571,7.5149,7.0658,20.136,FALSE
Ba5Co,Pmc2_1,0,7.516,8.0924,25.788,FALSE
HgF2,P-4m2,2.2433,7.5174,7.5161,26.753,FALSE
PBr3,P2_1/c,2.9429,7.5204,11.598,23.66,FALSE
Sb2Te3,P2/c,1.1661,7.528,10.57,22.151,FALSE
P2S5,P2_1/c,0.39,7.5392,6.7365,32.193,FALSE
Sb2Pd,P-3m1,0,7.5394,7.5394,22.86,TRUE
ZnB2(CN)8,P-3m1,5.2206,7.5394,7.5394,29.789,TRUE
CuTe2O5,P2_1/c,0.4114,7.5405,8.9888,26.558,FALSE
BiOF,P2_1/c,3.2822,7.5461,10.257,28.716,FALSE
TaI5,P-1,1.0781,7.5464,7.5026,29.934,FALSE
PI3,P2_1/c,1.9214,7.5516,12.252,23.63,FALSE
TaI5,P1,0.3421,7.5556,7.7792,22.367,FALSE
Li3Sn(PO3)6,P1,0.4953,7.5561,7.2703,29.452,FALSE
Tl2S3,P1,0.5862,7.5571,7.4703,38.382,FALSE
CuTeO3,P2_1/c,0.0019,7.5588,9.3141,21.859,FALSE
Te5P2,P2_1/c,0,7.5604,8.4049,32.143,FALSE
Sb3C,P-3m1,0,7.5647,7.5647,21.405,TRUE
P2Se5,P2_1/c,0.0642,7.5791,7.3121,32.15,FALSE
GdI3,C2/m,0.6011,7.5858,7.5858,23.291,TRUE
VZnF5,P2_1/c,1.0129,7.5858,7.645,28.743,FALSE
NbI5,P1,0.5422,7.59,9.6343,21.973,FALSE
Cu2HgI4,P2/m,0.4166,7.5907,4.935,23.773,FALSE
BiI3,P-31m,2.5334,7.6036,7.6036,23.704,TRUE
Ta3SeI7,P3m1,0.6888,7.6039,7.6039,23.814,TRUE
Ta3I8,P3m1,0.1491,7.6057,7.6057,23.495,TRUE
HoTe2ClO5,P2/c,2.8939,7.6059,7.9123,28.405,FALSE
Hg3Se4O5,P-1,2.2471,7.6101,7.8903,27.976,FALSE
LaBr3,C2/m,3.3111,7.6117,7.6117,23.09,TRUE
TiZnF5,P2_1/c,1.9529,7.623,7.7509,28.871,FALSE
AlI3,P-1,2.8818,7.6238,8.0336,23.231,FALSE
TlP3,P-3m1,0,7.6347,7.6775,21.198,FALSE
AlI3,Pmc2_1,1.8535,7.6358,6.8956,22.613,FALSE
Ba5Rh,Pmc2_1,0,7.6371,8.2174,25.788,FALSE
TeCl,P-1,0.7657,7.6395,8.9357,25.167,FALSE
ThBr4,P2_1/c,2.2969,7.6406,13.282,24.897,FALSE
UI4,C2/m,0.0941,7.6412,7.6412,25.189,TRUE
Au3F8,P2_1/c,0.6221,7.6434,10.733,23.417,FALSE
Ta3TeI7,P3m1,0.6596,7.6463,7.6463,24.025,TRUE
Hf(Te2Cl3)2,P-1,1.1898,7.6481,9.0513,23.739,FALSE
BiI3,P2_1/c,2.4802,7.6498,13.16,23.611,FALSE
LiV(SO4)3,P-1,1.1299,7.6502,8.9945,26.277,FALSE
Li2CoP2O7,P-42_1m,3.3301,7.6575,7.6573,24.609,TRUE
InTeBr,P2_1/c,2.1671,7.6597,8.3675,24.28,FALSE
Nb3I8,P3m1,0.2931,7.6609,7.6609,24.179,TRUE
Ba5Ir,Pmc2_1,0,7.6637,8.2633,25.788,FALSE
SiCl4,P1,5.423,7.6645,7.3067,21.934,FALSE
GaAs3,P-3m1,0.6039,7.6693,7.6693,21.198,TRUE
RbReSO3,P2_1/c,2.7504,7.6744,8.1731,27.617,FALSE
ZnWF5,P2/c,0,7.6776,7.8012,21.481,FALSE
KBi(PSe3)2,P2_1/c,1.4313,7.68,12.187,30.412,FALSE
Li2Cr4O13,P2_12_12,1.6432,7.6822,8.5473,29.903,FALSE
AlAs3,P-3m1,0.6117,7.6833,7.6833,21.198,TRUE
Tl2Te3,P-62m,0.0102,7.6899,7.6902,20.011,FALSE
Hg3AsSe4Br,P3m1,1.831,7.6927,7.6927,23.287,TRUE
SBr,P-1,1.7831,7.6954,9.1381,25.174,FALSE
Nb3TeI7,P3m1,0.6069,7.6989,7.6989,24.023,TRUE
ZnC2(SN)2,P-1,3.8952,7.7053,7.8197,29.38,FALSE
Zn2SeCl2O3,P2_1/c,4.102,7.7132,10.368,25.928,FALSE
BiB,P4/mbm,0,7.7181,7.7181,"20.0,""",TRUE
NbOF3,P-1,3.5574,7.7226,8.7526,25.511,FALSE
BiI3,P2_1/c,2.4136,7.7254,13.041,25.191,FALSE
Tl2Se3,P1,0.3261,7.7306,7.6532,38.35,FALSE
As3Pb,P-3m1,0.4188,7.7366,7.7366,21.405,TRUE
SeI,P-1,0.6758,7.7399,9.5389,25.149,FALSE
Na2UI6,P-3,0.2715,7.7404,7.7404,23.561,TRUE
Th(TeI)2,C2/m,1.4586,7.7405,8.137,24.981,FALSE
BiSe,P2_1/c,0.0282,7.742,7.3424,22.075,FALSE
ThRh5,P6/mmm,0,7.7425,7.7713,"20.0,""",FALSE
TlI3,Pmc2_1,0.9167,7.7444,7.1591,22.613,FALSE
GaP,P4/mbm,0.8737,7.7476,7.7476,"20.0,""",TRUE
Hg3AsSe4I,P3m1,1.7855,7.7524,7.7524,23.509,TRUE
ZnBr2,P-4m2,3.6055,7.7588,7.7588,26.753,TRUE
GaPS4,P2_1/c,2.2931,7.7605,12.039,23.394,FALSE
SnAs3,P-3m1,0,7.7611,7.7611,21.405,TRUE
AlP,P4/mbm,2.1265,7.7611,7.7611,"20.0,""",TRUE
Ca2Bi10O17,P1,1.9624,7.7616,7.7941,27.269,FALSE
SnBr4,Pmmn,0,7.7664,5.7704,22.402,FALSE
SiBi3,P-3m1,0,7.7675,7.7672,21.405,TRUE
AlBiBr6,P-1,2.6119,7.7719,9.717,25.346,FALSE
SbF3,P2_1/c,3.9338,7.7768,7.225,24.139,FALSE
InI3,Pmc2_1,1.1004,7.7809,7.6388,22.613,FALSE
InTeI,P2_1/c,1.9599,7.7824,8.3902,25.075,FALSE
SnSb3,P-3m1,0,7.7874,7.7881,21.405,FALSE
Tc3I8,P1,0.0374,7.7941,7.7947,22.151,TRUE
Li2FeP2O7,P-42_1m,3.9122,7.7979,7.7979,24.734,TRUE
SbOF3,P-1,2.732,7.8042,8.1486,25.548,FALSE
Si3As4,P1,0.3938,7.8067,9.4041,20.191,FALSE
Si3Sb4,P1,0.703,7.8159,12.247,20.003,FALSE
GeBi3,P-3m1,0,7.8171,7.8566,21.68,FALSE
Bi2B2O7,P-1,0,7.8206,7.775,22.994,FALSE
BSb3,P-3m1,0,7.822,7.8209,21.198,FALSE
Li2MnP2O7,P-42_1m,4.2136,7.8289,7.8289,22.252,TRUE
Ga2Te3,P1,0.3653,7.8296,7.8101,38.471,FALSE
Re3I8,P1,0.0711,7.8299,7.8278,22.359,FALSE
BaBi4O7,P3m1,1.9396,7.8312,7.8312,25.894,TRUE
Rb3Nb2Br9,P-6m2,0.4253,7.8315,7.8315,31.622,TRUE
Al2Te3,P1,0,7.8411,7.7906,38.509,FALSE
Fe4S5,P4/n,0,7.8445,7.8455,22.534,FALSE
SnHC2O3,C2/m,2.5969,7.8507,8.2926,25.362,FALSE
BSb5,Pmc2_1,0,7.8558,10.754,26.806,FALSE
BaF2,P-1,5.7247,7.8652,7.929,23.521,FALSE
B2Se,P3,1.7287,7.8665,7.8665,23.381,TRUE
BiCl3,P2_1/m,2.9219,7.8666,8.5645,24.851,FALSE
K2HgCl4,P2_1/m,2.6433,7.8727,9.053,26.316,FALSE
BiSbO5,P2_1/c,0.7378,7.8746,11.126,23.199,FALSE
Sn3(HO2)2,P-4,2.8783,7.8762,7.8762,25.096,TRUE
Sb3Pb,P-3m1,0,7.882,7.8817,21.405,FALSE
HgCl2,P-4m2,2.4476,7.8857,7.8857,26.753,TRUE
TeBr,P-1,0.7762,7.8882,9.3938,25.161,FALSE
NaB(CO2)4,Pmma,2.9269,7.8883,10.369,22.925,FALSE
CdCl2,P-4m2,3.7373,7.8889,7.8889,26.753,TRUE
SI,P-1,1.0089,7.8985,9.2715,25.137,FALSE
Br3N,P2_1/c,1.2154,7.9092,9.5829,24.935,FALSE
VSeO4,P2_1/c,2.6831,7.9097,9.7222,23.427,FALSE
ZnMoF5,P1,2.1987,7.91,7.8264,24.111,FALSE
SbF3,P2_1/c,3.8924,7.9131,7.1447,24.588,FALSE
Ca2Bi10O17,Cm,1.9843,7.918,7.918,27.3,TRUE
Bi3C,P-3m1,0.0003,7.9197,7.9197,21.405,TRUE
MgBi4O9,P2/c,1.4286,7.9212,8.9037,25.247,FALSE
AlSb5,Pmc2_1,0.4062,7.9242,13.765,26.806,FALSE
GaSb5,Pmc2_1,0.5679,7.934,13.932,26.806,FALSE
Y2Te3,P1,0.78,7.9424,7.8189,20.273,FALSE
ZnBi4O9,P2/c,1.4009,7.9452,8.8615,24.306,FALSE
TlTe3Pt2,P-3m1,0.9822,7.9518,7.9518,23.77,TRUE
InSb5,Pmc2_1,0.6101,7.9526,14.116,26.806,FALSE
TlSb5,Pmc2_1,0.7184,7.966,14.138,26.806,FALSE
CuH2(CO2)2,P2_1/c,0,7.9668,8.1063,21.107,FALSE
AsCl3,P2_1/c,3.7493,7.972,9.4964,24.538,FALSE
VI5,P-1,0,7.9737,7.8966,24.519,FALSE
Si2Ag6O7,P2/c,0.7626,7.9919,10.116,23.789,FALSE
K2GeSe4,P2_1/c,1.9014,7.9957,9.0097,29.884,FALSE
Bi2O3,P3m1,2.9846,7.9966,7.9966,23.147,TRUE
UTeO5,Pbcm,1.9804,7.998,10.346,23.974,FALSE
InAs3,P-3m1,0.6545,8.0007,8.0007,21.198,TRUE
MgI2,P-1,3.2651,8.0041,8.0224,23.506,FALSE
CaCl2,P-1,5.6205,8.0043,8.0529,23.514,FALSE
SnBi3,P-3m1,0,8.0077,8.0057,21.405,FALSE
Tl4SnS3,P42_12,1.0172,8.0201,8.0201,24.822,TRUE
BiBr3,P2_1/c,2.5211,8.0209,9.8485,24.383,FALSE
V3I8,P-3m1,0.0106,8.0279,8.0279,23.495,TRUE
TaI4,Pc,0,8.0367,7.1536,22.491,FALSE
BaUI6,P1,0.2911,8.0522,8.1676,23.706,FALSE
AlAs,P4/mbm,1.0785,8.0545,8.0545,"20.0,""",TRUE
ZrTlF5,P2_1/c,5.0599,8.0696,8.0427,25.858,FALSE
Bi3Pb,P-3m1,0,8.0703,8.069,21.405,FALSE
PbSeO3,P2_1/c,3.3704,8.0752,8.8312,27.177,FALSE
AsI4,P-1,0,8.096,6.4535,23.914,FALSE
Sb3O2F5,P2/c,3.8486,8.1031,12.686,26.516,FALSE
Hg2AsCl2,P2/m,1.3778,8.1037,9.0973,30.991,FALSE
TlAs3,P-3m1,0,8.1066,8.1066,21.198,TRUE