Formula,Space Group,Band Gap,a,b,c,a=b
Si3F8,P1,3.8852,5.1739,9.0457,32.34,FALSE
P4WO13,P1,2.1689,5.1745,7.9211,25.66,FALSE
TiF3,P-31m,0,5.1762,5.1762,23.034,TRUE
LiTeHO4,Pm,2.0183,5.1769,6.1336,24.27,FALSE
Sb4Cl2O5,P2_1/c,3.2062,5.1795,13.457,26.21,FALSE
TiO2,P2_1/m,2.671,5.1818,5.986,21.973,FALSE
TeO2,P2_1/c,2.5369,5.1844,5.7356,23.68,FALSE
Al2Si2H4O9,P1,4.4814,5.1856,5.1727,25.319,FALSE
Ba4As2O,P4/mmm,0,5.1858,5.1858,32.71,TRUE
VBr5,Pmmm,0,5.1862,5.8751,23.745,FALSE
NbF5,P1,4.4265,5.1869,7.7211,23.757,FALSE
HgSeO4,Pmn2_1,1.9078,5.1871,6.6512,23.668,FALSE
TaBr4,P4/mmm,0,5.1877,5.1877,23.812,TRUE
Tc2F7,P2/c,0.7219,5.1879,10.286,23.69,FALSE
Sb4I2O5,P2_1/c,2.3944,5.1891,13.445,27.051,FALSE
BCl,P4/nmm,2.8004,5.1907,5.1907,15.933,TRUE
CuTe2I,P222_1,0.8589,5.1916,8.492,23.272,FALSE
NbF4,Pc,0.2302,5.1928,5.2646,22.713,FALSE
Si2O5,Pmna,0,5.1938,5.0908,24.876,FALSE
NiS2,P2_1/c,0.8928,5.194,5.3203,21.102,FALSE
LiTeO3,P2,2.5377,5.1948,5.0712,23.769,FALSE
V2F5,P1,0.9332,5.1957,5.2631,24.907,FALSE
Sb2W,P-1,0.0458,5.1964,4.2115,22.588,FALSE
MnF3,C2/m,1.4801,5.1976,5.1976,21.915,TRUE
Re2F7,P2_1,0.0486,5.1986,7.576,31.326,FALSE
CrF3,P-31m,3.5486,5.1988,5.1988,22.771,TRUE
Sr2Sb,Pmm2,0,5.1989,5.3847,22.957,FALSE
Ge3Mo,P6/mmm,0,5.2027,5.2027,"20.0,""",TRUE
CCl4,P4/mmm,0.0433,5.2029,5.2029,23.993,TRUE
ScSi3,P6/mmm,0,5.203,5.203,"20.0,""",TRUE
Mg2Te3O8,C2,3.4332,5.2032,6.8834,25.147,FALSE
BiBr3,P-6m2,1.2515,5.2046,5.2046,24.623,TRUE
TlF,Pbcm,3.6288,5.2062,5.4013,23.093,FALSE
MnP2O7,P-1,0,5.2064,6.2512,29.023,FALSE
BCl3,C2/m,4.7078,5.2072,7.5394,23.594,FALSE
Zn3Au,P6/mmm,0,5.2086,5.2086,"20.0,""",TRUE
SbF3,Pmn2_1,4.5992,5.2086,6.6914,23.123,FALSE
TiAgF6,P-1,0.2086,5.2104,5.5495,23.42,FALSE
PtC3,Pbam,0,5.2121,4.769,25.862,FALSE
GeN3,P-3m1,1.5749,5.2129,5.2129,21.68,TRUE
Sb4O5F2,P2_1/c,3.4149,5.2148,13.357,25.53,FALSE
ReHgO4,P2_1/c,3.0104,5.2167,15.266,26.03,FALSE
VSe3,P-1,0,5.2169,6.8227,26.334,FALSE
P2WO8,P2_1/m,2.5296,5.2173,6.9733,28.007,FALSE
Mg(AlH4)2,P-3m1,4.6441,5.2184,5.2184,26.762,TRUE
MgBiPO6,P2_1/m,0,5.2187,7.4668,24.855,FALSE
Sr2Cu2WO7,Pm,0,5.2201,5.313,29.861,FALSE
Sr3Sn,P4mm,0.1711,5.2203,5.2212,22.353,FALSE
VOF3,Pc,2.7838,5.2211,5.4293,23.191,FALSE
Nb2TeO8,P2/c,0.7064,5.2221,5.946,27.511,FALSE
Cr3N2,C2,0,5.2224,5.2238,22.034,FALSE
TlFeSe2,C2/m,0,5.2226,6.3493,24.409,FALSE
Li2MnF6,P2/c,2.7142,5.223,7.5393,25.4,FALSE
V3OF11,P1,1.6787,5.2242,7.2279,24.856,FALSE
Ta2TeO8,P2/c,0.0961,5.2252,5.9089,27.338,FALSE
Si2H2O5,Pc,5.7003,5.2253,5.4844,25.541,FALSE
Co2SbO6,P-31m,0,5.2256,5.2602,21.713,FALSE
BaP,Pmm2,0,5.2282,4.1357,27.111,FALSE
Hg2W2O7,P-1,2.9808,5.2286,9.8832,24.773,FALSE
Sr2VCu2O7,Pm,0,5.2308,5.3424,29.467,FALSE
Ta2AgF12,P-1,0.7224,5.2309,5.5721,27.898,FALSE
NbBr4,P4/mmm,0,5.2312,5.2312,23.812,TRUE
Zn3As,P6/mmm,0,5.2314,5.2314,20,TRUE
NiN2,P-3m1,0,5.2316,5.2316,22.86,TRUE
VO2,C2/m,1.0526,5.2318,5.8702,21.631,FALSE
VO2,P-1,1.0576,5.2323,5.8723,21.958,FALSE
Sr2Bi,Pmm2,0,5.2342,5.5488,22.957,FALSE
SbF3,C2/m,2.7231,5.2343,5.2343,23.531,TRUE
Cr3O7,Pmn2_1,0.355,5.2345,10.474,24.208,FALSE
CdWO4,P2/c,3.4299,5.2345,5.0143,24.381,FALSE
CoSb2Br2O3,P-1,2.3593,5.235,8.0827,26.064,FALSE
Re2O7,Pmma,0,5.2364,5.3872,27.061,FALSE
Mo3O8,P2/m,0.9094,5.2386,6.1157,22.496,FALSE
Al2Si4O11,C2/m,4.2978,5.239,5.2418,26.756,FALSE
AsF3,C2/m,3.0876,5.2393,5.2393,23.585,TRUE
AgNO3,P-6,2.3217,5.2434,5.2434,20.973,TRUE
Ca(NCl)2,Pma2,1.4469,5.2486,7.6035,23.903,FALSE
CaCr2F12,P-1,1.4048,5.2513,5.5388,27.014,FALSE
BaBr2,P-4m2,4.6284,5.2555,5.2555,22.656,TRUE
BeCrO4,Pc,2.5152,5.2561,8.7479,22.243,FALSE
FeF3,P-31m,3.6847,5.2563,5.2566,22.681,TRUE
TiNiO3,P-3,2.0616,5.2575,5.2575,23.403,TRUE
Zn3Ag,P6/mmm,0,5.2576,5.2576,20,TRUE
Cu3OF5,P-1,0,5.2577,5.5253,27.267,FALSE
ZnCu(GeO3)2,P2_1/c,0.029,5.2578,9.6466,28.57,FALSE
TlBr3,P1,0.9264,5.2616,8.1401,22.991,FALSE
YbIO,P2_1/c,0,5.2619,6.0759,27.405,FALSE
HfF3,P-1,0.8524,5.2634,5.9307,23.036,FALSE
CoF3,C2/m,1.8284,5.2636,5.2636,22.642,TRUE
Sr2Cu2MoO7,Pm,0,5.2637,5.2665,29.59,FALSE
MgSiO3,P2_1/c,3.6778,5.2668,9.0921,30.852,FALSE
BaY3Cl11,Pmma,4.0264,5.2705,10.2,61.775,FALSE
Sr3Pb,P4mm,0.1694,5.273,5.2763,22.353,FALSE
Li2Cu2F7,P-1,0.15,5.2737,6.2861,26.605,FALSE
Sr2Mn2GaO7,Pmc2_1,0,5.2776,5.4017,28.767,FALSE
KNO3,Pmc2_1,3.3365,5.2779,6.4008,24.164,FALSE
Nb2Zn2CuO8,P-1,0.3666,5.2792,6.1303,28.526,FALSE
Ge3W,P6/mmm,0,5.2796,5.2796,"20.0,""",TRUE
GeBr4,P4/mmm,0,5.2802,5.2802,23.993,TRUE
RhF3,P-31m,1.6945,5.2803,5.2803,22.641,TRUE
Sn2O3,P2_1/c,2.8563,5.2803,7.4567,25.595,FALSE
LiCuCO3,Pmma,2.4557,5.2818,8.7617,20.076,FALSE
Sr2Cr2GaO7,Pmc2_1,0,5.2829,5.3486,28.646,FALSE
TiNb2Zn2O8,P-1,0.2298,5.289,5.9832,28.642,FALSE
AlN3,P-3m1,0,5.2915,5.2915,21.198,TRUE
MoO3,Pc,0.6776,5.2925,5.2836,22.229,FALSE
Nb2Zn2CoO8,P2/c,2.4234,5.2941,6.0054,28.543,FALSE
TaNb2Zn2O8,P-1,0,5.2942,6.0674,28.675,FALSE
Ta2Zn2CoO8,P2/c,2.7057,5.2947,6.0096,28.437,FALSE
LiSbO2,P2/c,2.6038,5.2957,5.3852,21.854,FALSE
PaP2,P4/mmm,0,5.2971,5.2971,22.513,TRUE
LiFe2OF5,Cm,2.7557,5.2976,5.2337,23.307,FALSE
Li3Fe2F9,P-6,4.1042,5.2994,5.3,26.797,FALSE
Si3Ni,P4/mbm,0,5.2995,5.2998,24.617,TRUE
VF3,P-31m,2.2073,5.2999,5.2999,22.719,TRUE
NbSe3,P-1,0,5.3002,7.0452,26.333,FALSE
Li2Fe(PO3)4,P-1,4.1367,5.3007,7.1887,27.561,FALSE
VO2F,P2_1/c,1.7287,5.3011,5.6256,24.745,FALSE
LiV2OF5,Cm,2.0333,5.3015,5.342,23.335,FALSE
Si3Rh,P4/mbm,0,5.3053,5.3053,25.635,TRUE
Ba3Sn,P4mm,0.195,5.3053,5.3022,22.353,FALSE
Mn2Te3O8,C2,2.4734,5.3054,7.0297,25.299,FALSE
CrHO2,P2_1/c,2.3558,5.3071,6.0883,24.177,FALSE
H2WO4,Pmn2_1,1.494,5.3088,5.3473,25.411,FALSE
CrGe3,P6/mmm,0,5.3109,5.3109,"20.0,""",TRUE
Ba2Sb,P-4m2,0,5.3111,5.3245,22.957,FALSE
WO3,Aem2,1.3594,5.3135,5.3173,22.232,FALSE
HfBr4,P4/mmm,1.2773,5.3162,5.3162,23.891,TRUE
NaBi3,P-6m2,0,5.3174,5.3175,22.3,TRUE
Nb2Zn2CrO8,Pc,0.912,5.3185,6.084,27.046,FALSE
Sn3F8,P2_1/c,3.3405,5.3186,13.306,22.938,FALSE
LiAg(CO2)2,P2_1,3.0591,5.3196,10.788,20.494,FALSE
NF4,P1,1.3989,5.3207,5.4228,22.44,FALSE
VOF3,P-1,1.6707,5.3208,10.282,23.368,FALSE
CdTeMoO6,P-42_1m,3.2344,5.3213,5.3213,27.701,TRUE
Nb2Zn2FeO8,P2/c,2.3336,5.323,6.031,28.589,FALSE
PbCl4,P4/mmm,0.5255,5.3233,5.3234,23.818,TRUE
Cu2BrO3,P2_1/m,0,5.3237,5.8182,24.398,FALSE
CuHOF,P2_1/c,0.2147,5.3239,6.341,23.584,FALSE
W3O8,P2/m,1.2149,5.3251,6.1481,21.948,FALSE
Ta2Zn2FeO8,P2/c,2.578,5.3257,6.0426,26.786,FALSE
BaAs,Pmm2,0,5.3271,4.3335,27.111,FALSE
Ta2VZn2O8,P2/c,1.1248,5.3292,6.0245,28.489,FALSE
TaO2,Pm,0.6955,5.33,6.2285,21.998,FALSE
TiZn(GeO3)2,P2_1/c,2.2731,5.3303,8.4583,29.945,FALSE
Ta2MnZn2O8,P2/c,2.6977,5.3306,6.0506,28.595,FALSE
AsO2,Pmn2_1,3.2434,5.331,7.4645,25.995,FALSE
K2Ca(NO2)4,C2/m,2.4073,5.3311,5.3311,26.894,TRUE
SnSO4,Pmn2_1,4.19,5.3337,7.3176,25.8,FALSE
SrI2,P-4m2,4.113,5.3353,5.3353,22.656,TRUE
Mg(IO3)2,P2_1,3.3735,5.3386,5.7035,27.13,FALSE
Mg3Si4(HO6)2,P-1,5.3821,5.3415,5.34,26.549,FALSE
MnNb2Zn2O8,P2/c,2.4534,5.3438,6.0694,27.027,FALSE
KFe2Se3,Pmma,0,5.3456,8.8335,23.805,FALSE
Nb2VZn2O8,P2/c,0.9313,5.346,6.0664,26.812,FALSE
MgTi(GeO3)2,P2_1/c,2.1065,5.3477,8.4181,29.918,FALSE
V3O7,Pmn2_1,1.3243,5.3496,10.699,24.157,FALSE
KPO4,P2_1/m,0.0122,5.3526,7.0855,25.412,FALSE
TlSbO3,P312,2.8982,5.3557,5.3557,26.245,TRUE
FeP4,P2_12_12,0,5.3571,5.5165,24.743,FALSE
Li2Fe2Si2O7,P-1,3.408,5.3572,5.3628,24.63,FALSE
Cu2BiAsO6,Pmn2_1,0.0682,5.3584,7.5726,27.677,FALSE
Mg3Si2H4O9,P31m,3.7283,5.3622,5.3622,25.377,TRUE
Ba(NiO2)4,P-31m,0,5.3643,5.3643,24.514,TRUE
AlH4(SeO4)2,P2_1/c,0,5.3652,9.4919,25.953,FALSE
CaGe2WO6,P2/c,2.2923,5.3655,8.6121,25.176,FALSE
U(HO2)2,P2_1/c,2.4571,5.3655,6.4941,23.373,FALSE
PF4,P1,5.9466,5.3662,6.5793,22.532,FALSE
HgINO3,Pmc2_1,2.4063,5.3708,7.115,23.713,FALSE
InBr3,P1,1.5607,5.3784,7.7759,22.989,FALSE
Cd3N,P6/mmm,0,5.3814,5.3814,20,TRUE
TlSbO3,P-31m,2.9522,5.3851,5.3851,25.295,TRUE
ZrBr4,P4/mmm,0.9912,5.3875,5.3875,23.891,TRUE
ZnTeMoO6,P2,3.0467,5.3898,5.341,24.097,FALSE
SbI3,P-6m2,0.58,5.3906,5.3906,24.623,TRUE
ZnP2(HO)4,Pmma,4.6409,5.3906,6.4523,27.365,FALSE
GaN3,P-3m1,0,5.3933,5.3933,21.198,TRUE
VPbClO3,P2_1/m,2.4215,5.3951,7.2075,23.332,FALSE
PS,Pmc2_1,0,5.3965,13.691,23.134,FALSE
Co(IO3)2,P1,2.5853,5.3965,5.53,23.167,FALSE
Nb2Zn2WO8,P-1,0.3268,5.3978,5.9723,28.767,FALSE
CaTi(GeO3)2,P2_1/c,2.408,5.3988,8.6563,30.027,FALSE
Ba2Bi,Pmm2,0,5.399,5.2628,22.957,FALSE
TaSe3,P2_1/m,0,5.4016,6.9895,26.333,FALSE
AsO2,P2_1/m,2.647,5.4044,6.2097,22.642,FALSE
Te(WO4)2,P2/c,0,5.4049,10.106,26.9,FALSE
NpI3,P-6m2,0.0222,5.4067,5.4067,24.791,TRUE
MoO3,Pc,1.1603,5.4072,5.4702,25.488,FALSE
CaMg(SiO3)2,P2_1/c,3.9166,5.4084,9.111,31.527,FALSE
SnN3,P-3m1,1.4503,5.4093,5.4093,21.405,TRUE
BiF4,P4/mmm,0.7247,5.4108,5.4116,22.404,FALSE
AgN3,Pccm,1.8287,5.4136,6.3304,21.248,FALSE
CrCuO4,Pmma,0.1164,5.4146,5.8037,24.277,FALSE
LiP(HO)2,Cmme,5.4113,5.4149,5.4149,25.187,TRUE
Li2O,P-3m1,1.9866,5.415,5.4149,22.643,FALSE
Ni(IO3)2,P1,3.0288,5.416,5.4,23.123,FALSE
InGeCl3,Cm,2.7402,5.4163,5.4197,22.376,FALSE
SiO2,P-3m1,6.4019,5.4164,5.4164,22.029,TRUE
PaAs2,P4/mmm,0,5.4165,5.4165,22.513,TRUE
CaP(HO3)2,Pc,0.2011,5.4172,5.7973,28.15,FALSE
InH5(NF)2,P2_1/c,3.8654,5.4172,12.073,24.705,FALSE
HfSnO3,P-31m,3.5769,5.4173,5.4172,24.419,TRUE
PbBr3,P1,0.3407,5.4177,8.2544,24.017,FALSE
Cu3Se2(ClO3)2,C2/m,0,5.4214,5.4214,25.486,TRUE
Mg,Cmmm,0,5.4219,5.4219,"20.0,""",TRUE
BeBr2,C2,4.6322,5.4229,6.2066,24.655,FALSE
U(HO2)2,P2_1/c,1.9681,5.428,5.8478,25.477,FALSE
Ga2Os,C222,0,5.4282,4.1484,21.364,FALSE
WO3,Pc,1.7569,5.4299,5.4997,25.534,FALSE
NaB(SO4)2,P2/c,6.0073,5.4305,7.8277,26.656,FALSE
CrO3,Pc,0,5.4319,5.2127,25.657,FALSE
Be2Te7Cl6,P2/m,1.3979,5.4362,16.543,22.861,FALSE
NiSe2,P2_1/c,1.0722,5.4371,5.6821,21.282,FALSE
IrF3,C2/m,1.8877,5.4389,5.4389,22.885,TRUE
CoSi3,P42_12,0,5.439,5.4401,25.635,FALSE
PuI3,P-6m2,0,5.4404,5.4404,24.728,TRUE
CCl3,P1,1.25,5.4411,8.0867,24.056,FALSE
Cu2WS4,P-42m,1.5945,5.4431,5.4431,22.609,TRUE
SeO2,P2_1/c,2.6635,5.4457,5.4462,24.125,FALSE
ZrF3,C2/m,0.5494,5.4471,5.4471,22.911,TRUE
PtS2,P2_1/c,1.9372,5.4471,5.5487,21.475,FALSE
CrCl4,P2/m,0,5.4476,6.5439,22.856,FALSE
ZrF3,P-1,0.5552,5.4483,5.9223,23.027,FALSE
K4Br2O,P4/mmm,0,5.449,5.449,30.802,TRUE
B2S3,P-62m,1.8595,5.45,5.45,20.011,TRUE
Mg2Sn3O8,P2/m,2.5267,5.4545,6.3245,24.32,FALSE
ZnWO4,Pmna,2.3712,5.4549,7.1254,23.726,FALSE
ZnSnO3,P-31m,2.2972,5.4559,5.4559,23.846,TRUE
Sr2TaCu2O7,Pmc2_1,0,5.4573,5.4267,29.144,FALSE
LiMnF3,P-31m,3.9104,5.4575,5.4572,23.503,TRUE
PdS2,P2_1/c,1.2153,5.4577,5.5758,21.258,FALSE
Mn(IO3)2,P2_1,2.7595,5.4619,5.7723,27.26,FALSE
CuHClO,P2_1/c,0.0191,5.4639,6.6806,21.216,FALSE
KAsO2,Pbcm,4.1418,5.4642,7.3914,25.206,FALSE
Rb2I,Pmma,0.0015,5.4655,9.213,23.993,FALSE
Ti(BiO3)2,P4mm,0,5.4689,5.4689,24.463,TRUE
SrVSi2O7,Pmma,2.4887,5.4692,7.0755,26.083,FALSE
ZnF2,P31m,4.6649,5.471,5.471,23.168,TRUE
InTeO3F,P2_1/c,3.5071,5.4734,7.8738,26.31,FALSE
SbTeClO3,Pmn2_1,3.2204,5.4758,7.2484,24.068,FALSE
Zn2Sn3O8,P2/m,2.1774,5.4761,6.3506,24.021,FALSE
Mg(IO3)2,P1,3.645,5.4785,5.4995,23.281,FALSE
SrTiSi2O7,Pmma,3.6174,5.4809,7.1251,25.012,FALSE
YSi3,P6/mmm,0,5.4822,5.4822,"20.0,""",TRUE
Li3TeHO4,P2_1/m,3.9792,5.4822,6.3558,25.393,FALSE
PO2,P3m1,0,5.4824,5.4824,22.984,TRUE
VTeO4,P2_1/c,2.3886,5.4826,13.513,26.262,FALSE
Cd3Se3O10,P2_1,3.1867,5.4833,10.224,32.649,FALSE
ScGe3,P6/mmm,0,5.4846,5.4846,"20.0,""",TRUE
MoO2,C2/m,1.0829,5.4854,6.5267,21.902,FALSE
CdP2(HO)4,P2/c,4.554,5.4854,6.519,26.444,FALSE
Zn3Sb,P6/mmm,0,5.4875,5.4913,20,FALSE
Mg2Mo3O8,P2/m,1.446,5.4899,6.1755,24.439,FALSE
NCl3,C2/m,1.0777,5.4901,5.4901,23.535,TRUE
CaSnS3,Pmmm,0.103,5.4938,5.4845,21.466,FALSE
CoF4,P4/mbm,1.6996,5.4951,5.4958,22.431,TRUE
Ba(CoO2)4,P-31m,0.0121,5.4992,5.4992,24.452,TRUE
SnBr4,P4/mmm,0.4471,5.4994,5.4994,23.993,TRUE
CrO3,P31m,0.7536,5.4994,5.4994,23.198,TRUE
Nb2Zn2SbO8,Pc,0,5.5,5.98,29.063,FALSE
AgXeF9,P4/m,1.3332,5.5005,5.5005,30.313,TRUE
Bi2SeO5,Aem2,3.0142,5.5005,8.6825,29.763,FALSE
NaCdPO4,P2_1/m,2.8669,5.5068,6.5063,24.727,FALSE
AuN3,Pccm,0.7498,5.5073,6.0097,21.248,FALSE
ZrP2(HO3)2,P-3m1,4.134,5.5075,5.5075,26.106,TRUE
CdNCl3,P2_1/m,1.2258,5.5089,7.1657,24.306,FALSE
OsS2,P2/c,0,5.5093,6.3463,22.958,FALSE
Bi4O5F2,P2_1/c,3.4845,5.5109,13.615,26.046,FALSE
ZnGe2WO6,P2_1/c,1.904,5.5125,8.718,30.161,FALSE
AsS,Pmc2_1,0,5.5138,13.803,23.134,FALSE
NiF2,P2_1/c,4.3049,5.5148,5.3754,26.149,FALSE
KSb3,P-6m2,0,5.5151,5.5151,22.3,TRUE
GaH3NF3,Pma2,2.5984,5.5163,5.4931,23.396,FALSE
Mo3O8,C2/m,1.7597,5.5183,5.517,26.248,FALSE
Mg5Co,Pmc2_1,0,5.5187,6.5429,25.788,FALSE
Mg5Ir,Pmc2_1,0,5.5231,6.9754,25.788,FALSE
As2O5,Pmn2_1,1.5655,5.5241,5.6466,25.384,FALSE
BiI3,P-6m2,0.8815,5.5265,5.5265,24.623,TRUE
Si3Sb,P2_1/m,0,5.5283,10.521,20.014,FALSE
AgRuF7,P2_1/c,0,5.5285,11.383,28.352,FALSE
AsS,Pc,0,5.5289,17.174,23.12,FALSE
BaCr4O8,P-31m,0,5.5293,5.5293,24.547,TRUE
KN3,P2/m,0.3626,5.5303,7.0003,"20.0,""",FALSE
BaI2,P-4m2,4.1563,5.5309,5.5309,22.656,TRUE
PtF2,P2_1/c,1.4417,5.531,7.5144,26.305,FALSE
PdC3,P1,0,5.5342,5.007,26.276,FALSE
Bi2TeO5,Aem2,2.809,5.5351,8.7846,30.148,FALSE
ZnGeN2,P2_1/c,2.0538,5.5359,6.468,23.596,FALSE
HIO3,Pca2_1,2.9047,5.5374,5.921,27.58,FALSE
PSe,Pmc2_1,0,5.5393,14.322,23.134,FALSE
PbWO4,Pmna,2.4914,5.5403,7.9605,25.534,FALSE
CeSe2,P2_1/m,0,5.5406,5.5346,29.175,FALSE
Li2VF6,Pmmn,2.2501,5.5421,5.4879,27.599,FALSE
VOF3,P1,2.7498,5.5434,10.549,23.326,FALSE
VI4,P4/mmm,0,5.5454,5.5454,23.812,TRUE
Pb3F8,P1,2.3752,5.5472,9.8391,32.246,FALSE
PbN3,P-3m1,1.2305,5.5474,5.5474,21.405,TRUE
LiAg(CO2)2,Pc,2.5835,5.5503,10.039,22.3,FALSE
LiP3,P2/m,1.4647,5.5516,7.5512,"20.0,""",FALSE
RbFe2Te3,Pmma,0,5.5527,9.7492,24.076,FALSE
V2O5,P2_1,2.3522,5.5534,10.16,24.069,FALSE
MnCl4,P2_1/c,0,5.5543,6.5364,23.109,FALSE
BaY3Br11,Pmma,3.1451,5.5543,10.752,63.001,FALSE
RuS2,Pcca,0,5.5546,6.0633,22.948,FALSE
MgGe2WO6,P2_1/c,1.539,5.5559,8.4682,30.197,FALSE
Ba(FeO2)4,P-31m,0,5.5563,5.5563,24.443,TRUE
Cr3O8,Cm,1.5222,5.5609,6.2094,22.429,FALSE
CaC2(SN)2,P2/c,3.8828,5.5661,7.2439,24.038,FALSE
NiP2,P4/mbm,0.0723,5.567,5.5692,19.064,FALSE
RbAsO2,Pbcm,4.1262,5.5671,7.7418,25.305,FALSE
Ba2Tl2CuO6,Pmna,0,5.5679,5.5536,33.622,FALSE
BaMn4O8,P-31m,0,5.5683,5.5683,24.215,TRUE
InSnCl3,Cm,2.6639,5.5684,5.5586,22.64,FALSE
Cu2WSe4,P-42m,1.2721,5.5715,5.5715,22.837,TRUE
Hg3Se3O10,P2_1,2.3436,5.575,11.374,30.467,FALSE
RhF4,P4/mbm,0.1793,5.5754,5.5754,22.43,TRUE
HgCN2,P2_1/m,2.3099,5.5755,7.0152,20.622,FALSE
Pb2O3,P2_1/c,1.8733,5.5773,7.7619,25.496,FALSE
Ga2O3,P-62m,3.1512,5.5773,5.5773,21.655,TRUE
NaSbF4,P2_1/c,4.5285,5.579,8.0698,26.533,FALSE
PAuS,Pc,1.0822,5.5804,5.6597,21.377,FALSE
Sn3(P2O7)2,P-1,2.9313,5.5822,7.0435,26.711,FALSE
NdS3,P6/mmm,0,5.5846,5.5846,19.957,TRUE
TcCl4,P2_1/c,0,5.5849,6.6926,23.102,FALSE
SnCl3,P1,1.9427,5.5851,7.9644,24.081,FALSE
NaN3,Pmmm,1.0971,5.5862,4.7116,20.039,FALSE
W3O8,C2/m,2.6897,5.5878,5.5866,26.247,FALSE
Br4N,P1,0,5.5898,5.1595,22.704,FALSE
ZnSiN2,Pmna,0.2691,5.5904,5.7076,23.988,FALSE
ScF3,P-31m,6.713,5.5914,5.5914,28.254,TRUE
Bi2Te2WO10,P2/c,3.0403,5.5921,12.453,25.507,FALSE
SrTa2Bi2O9,Pmc2_1,2.2875,5.5949,5.5554,33.498,FALSE
NaSbMoO5,P2_1/c,3.4459,5.5951,10.897,27.633,FALSE
AlSbO3,P31m,1.6456,5.5953,5.5953,24.342,TRUE
Pb(BrO3)2,P2/c,3.1226,5.5974,6.1908,26.763,FALSE
Mo3O7,Pmn2_1,0.7963,5.5986,11.442,24.594,FALSE
Mg5Rh,Pmc2_1,0,5.6016,6.7886,25.788,FALSE
PtN2,P-3m1,0,5.6022,5.5959,22.859,FALSE
Li2Cr2O7,P-1,2.4987,5.605,7.7464,25.091,FALSE
CdSnO3,P-31m,1.849,5.6051,5.6051,22.117,TRUE
TiZn(BiO3)2,P4mm,0,5.6068,5.6068,24.141,TRUE
Cr3O8,P-3m1,0.6709,5.607,5.6592,22.252,FALSE
Bi3O2F5,Pmc2_1,3.5966,5.6082,5.9221,28.27,FALSE
TiI4,P4/mmm,0,5.6089,5.6089,23.891,TRUE
HfO2,P-3m1,4.815,5.6093,6.4774,21.973,FALSE
Co3NiO8,P-3m1,1.3041,5.6101,5.6101,21.943,TRUE
RbPbI3,Pmc2_1,2.6112,5.6101,8.249,28.617,FALSE
KBi3,P-6m2,0,5.6108,5.6108,22.3,TRUE
AgSbS2,Pc,1.9718,5.6112,17.776,22.588,FALSE
PPdS,Pc,0,5.6165,5.7107,21.128,FALSE
PrS3,P6/mmm,0,5.6174,5.6174,19.933,TRUE
Si3Ir,P4/mbm,0,5.6178,5.6178,25.635,TRUE
CaH4SO6,P2/c,4.2664,5.6178,6.2958,27.341,FALSE
TaI4,P4/mmm,0,5.6189,5.6189,23.812,TRUE
P,Pm,1.2469,5.6189,6.3431,23.456,FALSE
LiAg(CO2)2,P-1,2.1517,5.62,9.8573,21.239,FALSE
Cd3Cu,P6/mmm,0,5.6225,5.6225,"20.0,""",TRUE
CoSi4,P4/nbm,0,5.6236,5.6236,22.924,TRUE
ReCl4,P2_1/c,0,5.6278,6.6913,23.1,FALSE
PAuS,Pca2_1,0.7426,5.6284,5.6935,25.397,FALSE
Si4Ni,P4/nbm,0,5.63,5.6346,22.903,FALSE
Ag2IO6,P-31m,0,5.6303,5.6303,22.571,TRUE
BiS,Pmc2_1,0,5.6309,15.173,23.134,FALSE
VCuO4,Pmma,0.2903,5.6341,6.213,22.555,FALSE
TaTl(CuS2)2,Pma2,1.424,5.6341,7.5923,28.976,FALSE
CaGe2WO6,P2_1/c,1.4238,5.637,8.7791,30.418,FALSE
PS,Pc,1.1574,5.6396,18.728,23.12,FALSE
LiVF6,Cm,3.3609,5.6401,5.6272,23.12,FALSE
Tl3BSe3,P2_1/m,1.7393,5.6417,10.156,26.244,FALSE
CoGe3,P4/mbm,0,5.6431,5.6431,25.635,TRUE
Zn3Bi,P6/mmm,0,5.6475,5.6471,20,TRUE
Bi4Te2Br2O9,P4mm,1.1641,5.6484,5.6484,26.672,TRUE
Cu2IO3,P2_1/m,0,5.6487,5.8337,25.875,FALSE
BaV4O8,P-31m,0,5.6509,5.6509,24.532,TRUE
Ta2Cl5,Cm,0,5.6541,5.6567,24.913,FALSE
NbI4,P4/mmm,0,5.6544,5.6544,23.812,TRUE
OsSe2,P2/c,0,5.6555,6.6003,22.968,FALSE
Cu3Te2(BrO3)2,C2/m,0,5.6566,5.6566,25.843,TRUE
SiI4,P4/mmm,0,5.6568,5.6568,23.993,TRUE
CF4,C2,9.2199,5.6569,5.6513,21.918,FALSE
AgHO2,Cm,0,5.6585,5.6646,21.848,FALSE
CaP2(H2O3)3,P-1,4.5598,5.6609,6.2176,31.536,FALSE
TaF4,P1,1.891,5.6617,5.2119,22.514,FALSE
CaTeO3,P2_1,3.3697,5.6617,8.4875,31.193,FALSE
PbBr4,P4/mmm,0,5.6659,5.666,23.818,FALSE
FeS2,Pcca,0,5.6682,5.7359,22.948,FALSE
Cd3P,P6/mmm,0,5.6685,5.6685,"20.0,""",TRUE
CaB2(HO)8,P-1,4.4534,5.6715,8.2465,25.901,FALSE
CaP2(HO)4,P2/c,5.5087,5.6724,6.626,26.565,FALSE
Cd(IO3)2,P2_1,3.456,5.6761,5.8719,27.369,FALSE
LiSO3F,C2/m,6.2646,5.6786,5.6786,25.881,TRUE
InN3,C2/m,0.4905,5.6787,5.7167,21.213,FALSE
Ca(AuF6)2,P-4m2,1.6539,5.6807,5.6807,27.591,TRUE
K2P2Pd,Pmma,0.4013,5.6828,6.2944,26.051,FALSE
PdN2,P-3m1,0,5.6845,5.6845,22.86,TRUE
AsSe,P2/c,0,5.6871,17.583,23.12,FALSE
BI3,P1,2.4847,5.6903,9.4862,23.161,FALSE
BaSb2F12,P1,3.5225,5.692,5.7201,27.228,FALSE
PdSe2,P2_1/c,1.4254,5.6942,5.9025,21.474,FALSE
ReCl3,C2/m,0.1328,5.6947,5.6947,22.024,TRUE
Re3F8,P1,0.4361,5.6976,5.654,22.386,FALSE
AgCN3O2,Pbcm,2.7696,5.6979,12.384,26.702,FALSE
TcCl3,C2/m,0.1998,5.7004,5.7004,23.219,TRUE
PtSe2,P2_1/c,1.5559,5.7005,5.8958,21.127,FALSE
AsSe,Pmc2_1,0,5.707,14.372,23.134,FALSE
YGe3,P6/mmm,0,5.7083,5.7083,"20.0,""",TRUE
CaH4(ClO)2,Pnc2,5.0419,5.7101,7.3746,25.201,FALSE
V2Pb3O8,C2,3.1693,5.7106,5.7106,25.146,TRUE
CaPH5O6,Pc,4.7462,5.711,5.9086,27.955,FALSE
AsO2,P1,0.9951,5.7112,7.0877,33.358,FALSE
MoF3,P-31m,4.3145,5.7115,5.7115,22.871,TRUE
SiO,Pbcm,1.6616,5.7118,4.8945,22.719,FALSE
ZrO2,P2_1/m,4.1033,5.7126,6.5956,21.973,FALSE
Ca(ClO2)2,P4/nbm,2.9306,5.7136,5.7235,24.266,FALSE
W3Se2ClO8,Pm,0,5.7138,11.578,26.666,FALSE
PPdS,P2/c,1.1237,5.7139,5.7508,24.18,FALSE
AlF,Pbcm,0.7992,5.7147,4.9096,23.094,FALSE
BI,Aem2,0.5448,5.7156,5.574,23.14,FALSE
CuH6BrN2,P2/c,2.1596,5.7157,6.5251,24.856,FALSE
BaTi4O8,P-31m,0,5.7158,5.7158,24.406,TRUE
CrCo3O8,P-3m1,0,5.7185,5.7185,21.824,TRUE
CuHg3,P6/mmm,0,5.7194,5.7194,"20.0,""",TRUE
Pb3SO6,Pmma,2.9439,5.7195,10.061,25.398,FALSE
PdF2,P2_1/c,0.8652,5.7204,5.8151,25.991,FALSE
Li2Ta2(OF2)3,C2,3.8053,5.7227,5.7227,24.74,TRUE
LiNiPO4,Pmma,2.7132,5.7234,8.3502,21.047,FALSE
BI,Pbcm,0.8219,5.7246,5.6715,23.094,FALSE
Li2VF6,Pmn2_1,2.1651,5.726,8.1691,25.003,FALSE
BI3,C2/m,1.9837,5.7263,9.0613,23.447,FALSE
LiSnPO4,Pc,0,5.7264,9.6488,26.269,FALSE
UF4,C2/m,0.384,5.7266,5.7266,25.184,TRUE
CaH4SeO6,P2/c,3.944,5.7287,6.5223,27.58,FALSE
AsPb,C2/m,0,5.7288,8.7078,24.746,FALSE
LiV2NiO6,P2/c,1.3546,5.7316,9.8026,21.309,FALSE
Si3Pt,P4/mbm,0,5.7331,5.7327,25.488,FALSE
Nb2Cl5,Cm,0,5.7331,5.7379,24.913,FALSE
RuSe2,Pcca,0,5.7338,6.378,22.948,FALSE
Mn2Cl5,P2/c,0,5.7345,6.4649,25.784,FALSE
Re2NiO8,P-3,3.8874,5.7373,5.7373,27.006,TRUE
PbS,Pmna,0.1603,5.7375,7.6392,24.071,FALSE
TaCl3,P-31m,0,5.7401,5.7401,22.719,TRUE
InF3,P-31m,4.8898,5.7401,5.7401,22.753,TRUE
Na2H6PtO6,P-3,3.0411,5.7445,5.7445,23.754,TRUE
FeCo3O8,P-3m1,0,5.7469,5.7469,22.052,TRUE
Pb3SeO5,Pmc2_1,3.0306,5.747,10.691,25.067,FALSE
Cd3Au,P6/mmm,0,5.7506,5.7506,"20.0,""",TRUE
BiS,P2/c,0,5.7515,17.896,23.12,FALSE
GeI4,P4/mmm,0,5.7519,5.7519,23.993,TRUE
VCl5,P1,1.0631,5.7523,10.069,24.745,FALSE
CuPb2(ClO2)2,P4mm,0,5.7536,5.7536,25.422,TRUE
CoCl3,C2/m,1.2861,5.7542,5.7542,22.858,TRUE