Formula,Space Group,Band Gap,a,b,c,a=b
Cd3As,P6/mmm,0,5.7546,5.7546,"20.0,""",TRUE
HfI4,P4/mmm,0.5265,5.7573,5.7573,23.891,TRUE
Ni(PS3)2,P312,0.4575,5.758,5.758,23.135,TRUE
Cr3O8,P-3m1,0,5.7598,5.7598,22,TRUE
LaCrBiO6,Pc,1.7446,5.7607,6.3959,27.09,FALSE
Li2VF6,P-3m1,1.9943,5.762,5.762,22.806,TRUE
LiVO3,P2/c,3.2357,5.764,9.7169,27.213,FALSE
SbS,Pmc2_1,0,5.7648,14.63,23.134,FALSE
B2S3,P1,0,5.7666,5.6693,37.257,FALSE
GeBr4,P-1,0,5.7689,7.6305,22.657,FALSE
ZnP2WO7,P-1,1.4008,5.7701,6.5452,30.224,FALSE
CaP(H2O3)2,P-1,0.1387,5.7715,6.4418,27.403,FALSE
LiNiPO4,Pmma,0,5.7716,8.1719,22.503,FALSE
Li2MnF6,P-3m1,3.1103,5.773,5.773,21.305,TRUE
IrF4,P4/mbm,0.7733,5.7733,5.7745,22.431,FALSE
SbS,Pc,0,5.7735,17.451,23.12,FALSE
Al2O3,P-62m,3.6148,5.7735,5.7735,15.062,TRUE
Hg3P,P6/mmm,0,5.7741,5.7741,"20.0,""",TRUE
CoPS3,P-31m,0,5.7744,5.7744,22.872,TRUE
Li2GeN2,P2_1/c,2.5044,5.7753,6.5466,24.996,FALSE
BaSn2(HO2)2,P2_1,3.0797,5.7756,7.2043,25.804,FALSE
Sn3Mo,P6/mmm,0,5.7768,5.7768,"20.0,""",TRUE
PbBr4,P2/c,0,5.7782,7.916,22.392,FALSE
Ag2S,P2_1,1.687,5.7794,5.783,22.469,FALSE
In2O3,P321,1.6259,5.7812,5.7811,24.184,TRUE
Ge3Rh,P4/mbm,0,5.7813,5.7813,25.635,TRUE
Mg(ReO4)2,P-3,4.0403,5.784,5.784,26.865,TRUE
Co(ReO4)2,P-3m1,2.1445,5.7852,5.7852,27.001,TRUE
As2Pb2O5,P2_1/c,3.0113,5.7859,13.648,26.346,FALSE
Cd3Ag,P6/mmm,0,5.7863,5.7863,"20.0,""",TRUE
AgIO3,Pc,2.2711,5.7874,7.099,25.711,FALSE
Au2S,P4/nmm,1.1375,5.7886,5.7885,22.548,TRUE
NO2,P1,0,5.7897,5.5406,23.316,FALSE
Mn3SnO8,P3m1,0.3605,5.7897,5.7897,23.17,TRUE
Ag2Se,P2_1,1.7607,5.7898,5.8188,22.555,FALSE
Ag2Te,P2_1,1.4892,5.7902,5.7894,22.549,FALSE
Zn(ReO4)2,P-3,4.0205,5.7904,5.7904,27.049,TRUE
SrP2(H2O3)2,P-1,5.205,5.792,7.2527,28.209,FALSE
Ge3Pd,P4/mbm,0,5.793,5.7904,25.862,FALSE
Si3Pd,P42_12,0,5.7936,5.7953,25.862,FALSE
Au2Se,P4/nmm,1.1288,5.7944,5.7934,22.551,FALSE
WF3,P-31m,4.1269,5.7953,5.7953,22.871,TRUE
InI3,P1,0.5793,5.7956,8.437,22.969,FALSE
V2Cl5,Cm,0,5.7959,5.8063,24.911,FALSE
K2As2Pd,Pmma,0.4231,5.796,6.4348,26.01,FALSE
Fe(PS3)2,C2,0.0648,5.7966,5.7966,23.127,TRUE
TeAu2,P2_1,0.9866,5.7967,5.7976,22.553,FALSE
CoCl4,P2_1,0,5.7987,6.4051,22.976,FALSE
Mg2Si,P2/c,0,5.799,5.8895,28.824,FALSE
Ba(MoO2)4,P-31m,0,5.799,5.799,24.629,TRUE
RhCl4,P2_1/c,0,5.7995,6.0838,22.941,FALSE
Pb3Br8,P1,1.1964,5.7999,8.0774,34.019,FALSE
Re2Cl5,P2/c,0,5.8005,6.3369,27.119,FALSE
P2Pb3O8,P2/c,3.4609,5.8019,9.5098,24.907,FALSE
LiNi(PS3)2,P312,0.0319,5.804,5.874,23.136,FALSE
CBr3,P1,1.136,5.8041,8.3906,24.076,FALSE
TlVO3,Pbcm,3.3119,5.8041,12.443,21.654,FALSE
LaSi3,P6/mmm,0,5.8047,5.8047,"20.0,""",TRUE
NbCl3,P-31m,0,5.808,5.8079,22.719,FALSE
NaAsH4O5,P2_1/m,3.4801,5.8083,6.3625,26.956,FALSE
LiV2OF7,Cm,2.0871,5.8097,5.811,22.938,FALSE
Te2Pd3Pb2,Pmmn,0,5.8102,8.8246,24.261,FALSE
Mn3V3(TeO8)2,P1,0.9745,5.8145,5.9598,28.277,FALSE
KHCO2,Pmma,4.6673,5.8149,7.4188,18.449,FALSE
ZnH4(NO4)2,P2_1/c,3.3045,5.8151,8.3109,24.856,FALSE
Ta4AgS8,Pm,0,5.8152,6.7225,25.156,FALSE
PaBi2,P4/mmm,0,5.8154,5.8154,22.513,TRUE
NiAs2,P31m,0.1921,5.8164,5.8165,23.849,TRUE
Ge3Ir,P4/mbm,0,5.8192,5.8192,25.635,TRUE
Ta4AgS8,P2_1/m,0,5.8196,6.7226,30.492,FALSE
Ag2IOF,P2_1,0.8868,5.8201,4.2203,22.898,FALSE
GeO2,P-3m1,3.5364,5.8207,5.8207,22.029,TRUE
CrPO5,P4/n,2.0606,5.8208,5.8208,26.056,TRUE
ZrI4,P4/mmm,0.3039,5.8213,5.8213,23.891,TRUE
Pb3SO6,P-1,2.773,5.8221,7.1014,28.407,FALSE
MgF2,C2/m,6.5248,5.8231,5.8495,23.508,FALSE
TeP,Pc,0,5.8244,18.167,23.12,FALSE
Mn3CuO8,P-3m1,0.0067,5.8245,5.8246,21.933,TRUE
WO2,C2/m,1.9476,5.8273,6.3145,21.888,FALSE
NiPS3,P-31m,0.0473,5.8278,5.825,23.037,FALSE
PbClF,P4/nmm,2.9024,5.8312,5.8312,21.297,TRUE
B2Se3,P-62m,1.4484,5.8318,5.8318,20.011,TRUE
CrBr4,P-1,0,5.8322,6.8974,23.032,FALSE
CaAsH5O6,Pc,3.4655,5.8323,6.1168,28.079,FALSE
Mn3VO8,P-3m1,0,5.8326,5.8691,21.936,FALSE
SO3,P31m,1.4267,5.8339,5.8362,23.517,FALSE
TeP,Pmc2_1,0,5.8343,14.783,23.134,FALSE
Si3N4,P-6m2,2.014,5.8348,5.8348,19.974,TRUE
TlBS3,Pc,2.1367,5.8354,6.8142,23.902,FALSE
NaB(HO)4,P-1,4.6085,5.8375,6.1057,25.179,FALSE
Mn3CoO8,P-3m1,1.171,5.838,5.838,21.928,TRUE
Mg2C,P4/nmm,0.1158,5.8391,5.8411,28.824,FALSE
LiVF5,C2/m,2.1027,5.8401,5.8401,25.065,TRUE
MoCl4,P-1,0,5.8407,6.6931,23.223,FALSE
Sn3W,P6/mmm,0,5.843,5.843,"20.0,""",TRUE
Mn3CrO8,P-3m1,0.9251,5.8446,5.8457,21.929,FALSE
NiTe2,P2_1/c,0.9822,5.849,6.2441,21.488,FALSE
TlCl3,Pmc2_1,1.3847,5.8514,6.6463,22.613,FALSE
RuCl4,P2_1/c,0.0551,5.8538,6.2515,23.368,FALSE
OsCl4,P2_1/c,0.1209,5.8565,6.2564,23.369,FALSE
V3Co3(TeO8)2,P1,0.4642,5.8571,5.8654,27.93,FALSE
Sr2GaSb2O7,P2_1,0.2054,5.8579,6.0678,27.648,FALSE
CrBi2,P-1,0,5.8612,3.4491,23.42,FALSE
O2F,P2_1/c,1.3787,5.8616,7.2529,24.783,FALSE
MnCo3O8,P-3m1,0,5.863,5.863,21.887,TRUE
MoCl3,C2/m,0.1261,5.8631,5.8631,23.306,TRUE
PPdSe,P2/c,1.0372,5.8633,5.9265,24.419,FALSE
Hg3Au,P6/mmm,0,5.8636,5.8636,"20.0,""",TRUE
AsCl3,Pmn2_1,3.7066,5.8643,6.9917,23.123,FALSE
Li2SO4,Pmma,4.4351,5.8656,8.1794,22.412,FALSE
SiF4,P1,7.8746,5.8673,5.8004,22.249,FALSE
Tc2Cl5,P2/c,0,5.8676,6.3703,26.832,FALSE
Ce2O3,P321,0,5.8706,5.8706,22.073,TRUE
VCl4,P2_1/c,0,5.8721,8.6489,25.822,FALSE
Sb2O5,Pmn2_1,1.2399,5.874,8.3486,25.596,FALSE
TiMn3O8,P-3m1,1.6959,5.8755,5.8755,21.922,TRUE
BeI2,C2,3.5406,5.8757,6.7652,24.65,FALSE
TiCo3O8,P-3m1,0.0677,5.8763,5.8763,21.953,TRUE
VINCl3,P-1,1.0651,5.8763,7.6332,25.743,FALSE
NiCl2,P2_1/c,0.7441,5.8766,7.1262,26.012,FALSE
VAg(PS3)2,P2/c,0,5.8769,10.754,23.829,FALSE
LuBiO3,P-3,3.238,5.8791,5.8792,25.848,TRUE
Bi2OF4,P2/c,4.1061,5.8801,5.5233,25.46,FALSE
LiCuPO4,Pmma,0,5.8807,8.1194,22.499,FALSE
SrCO3,P2/m,1.0712,5.8819,8.1126,23.988,FALSE
V3Fe3(TeO8)2,P1,1.5411,5.8829,5.9633,28.481,FALSE
BaSb,Pmm2,0,5.8838,4.5989,27.111,FALSE
MgH4(NO4)2,P2_1/c,3.5682,5.8852,8.352,25.038,FALSE
CaGe2,C2/m,0,5.8867,5.0002,23.148,FALSE
TiTl2F6,P-3m1,3.8512,5.8874,5.8874,21.955,TRUE
LiNiPO4,P2,2.0332,5.8881,5.7896,22.047,FALSE
AlCl,Pbcm,2.5319,5.8899,6.0722,23.094,FALSE
Si4Rh,P4/nbm,0,5.8904,5.8904,22.924,TRUE
NdSe3,P6/mmm,0,5.8911,5.8911,"20.0,""",TRUE
FeBiO3,P1,2.0925,5.8911,5.984,21.065,FALSE
CaAsH5O6,Pc,3.936,5.8958,6.1897,28.03,FALSE
Sb,Pbam,0,5.8961,7.6492,24.52,FALSE
Si4Ir,P4/nbm,0,5.9007,5.9007,22.924,TRUE
CoGe4,P4/nbm,0,5.9031,5.9031,22.924,TRUE
AsCl4,Pc,0,5.9031,7.3359,22.462,FALSE
BBr3,C2/m,2.1468,5.9041,5.9041,22.723,TRUE
SrH2(SeO3)2,P-1,4.1666,5.9045,7.3516,28.03,FALSE
Hg3As,P6/mmm,0,5.9049,5.9049,"20.0,""",TRUE
GaCl,Pbcm,3.1281,5.9056,5.958,23.094,FALSE
Na2FeO2,P2/c,1.2739,5.9101,6.8886,25.163,FALSE
FePS3,P-31m,0,5.9106,5.9262,23.182,FALSE
PCl4,P1,1.9237,5.912,6.9797,22.62,FALSE
Mn3TeO8,C2/m,0.8937,5.9129,6.2786,22.162,FALSE
Si2O3,P2_1/m,2.9012,5.9162,3.4279,25.492,FALSE
NiGe4,P4/nbm,0,5.9169,5.933,22.903,FALSE
Mn2Cl7,P2/c,0.0754,5.9169,11.906,23.69,FALSE
SiS2,P2_1/c,3.2969,5.9177,7.7616,23.134,FALSE
ReBr4,P2_1/c,0,5.9208,7.1018,23.046,FALSE
PrSe3,P6/mmm,0,5.9209,5.9209,"20.0,""",TRUE
SbBr3,Pmn2_1,2.5927,5.9217,8.3063,23.123,FALSE
SbO2,P2_1/m,2.8347,5.9218,6.5341,22.642,FALSE
Cu2WO4,P-1,1.6563,5.9222,8.1887,28.21,FALSE
MgNiP2O7,P-1,3.4783,5.9224,8.1784,24.438,FALSE
Si4Pt,P4/nbm,0,5.9226,5.9293,22.926,FALSE
Mn(ReO4)2,P-3,3.0593,5.9232,5.9232,27.119,TRUE
LiFe2F7,P2_1/m,3.5735,5.9257,9.3156,24.02,FALSE
TcBr4,P2_1/c,0,5.9262,7.1004,23.053,FALSE
C3Br8,P1,0.0649,5.9274,5.9499,34.225,FALSE
Ta3F8,P3m1,0.4019,5.9282,5.9282,24.052,TRUE
VPS3,P-31m,0,5.9291,5.9478,23.108,FALSE
AgHg3,P6/mmm,0,5.93,5.93,"20.0,""",TRUE
P4C3,P-6m2,0,5.9308,5.93,20.011,TRUE
Ba,P4/mmm,0,5.9308,5.9308,"20.0,""",TRUE
WCl4,P1,0.4485,5.9313,6.2296,22.738,FALSE
SiCl3,P1,2.9005,5.9327,9.2103,24.253,FALSE
Ba3BPO7,P3m1,0.0187,5.9331,5.9331,26.459,TRUE
RuCl3,P-31m,0.0031,5.9333,5.9334,22.681,TRUE
Li4TiS4,P-42m,2.52,5.934,5.934,24.941,TRUE
Ta2O5,P2_1,3.7052,5.9372,10.984,24.408,FALSE
V2O5,Pmn2_1,2.617,5.938,8.5463,26.097,FALSE
AsO2,P3m1,0,5.9386,5.9386,22.984,TRUE
GaCl,P4/nmm,3.0477,5.9387,5.9404,23.14,FALSE
MnBr4,P2_1/c,0,5.9393,6.9573,23.093,FALSE
LiMnPO4,Pmma,2.8001,5.941,8.4789,22.504,FALSE
ZrH3NF4,P-1,5.041,5.9419,8.0923,26.86,FALSE
SrP2(HO)4,P2/c,5.165,5.9422,5.9428,26.206,TRUE
Na3(TiS2)10,Cm,0,5.944,9.0538,29.43,FALSE
Si4Pd,P4/nbm,0,5.945,5.9455,22.903,TRUE
VCl5,P-1,0.9814,5.9459,6.4388,31.509,FALSE
Te2Os,P2/c,0,5.9462,7.22,22.949,FALSE
FeSe2,Pcca,0,5.947,5.9497,22.948,FALSE
NdVSb3,Pbcm,0,5.9474,7.9994,28.66,FALSE
Feb-04,P2_1/c,0.0032,5.948,7.2014,23.393,FALSE
MoBr4,P-1,0,5.9494,7.2164,23.275,FALSE
BeCl2,P-1,5.6961,5.9497,5.9517,23.514,FALSE
TlN3,P-3m1,0.4205,5.9523,5.9523,21.198,TRUE
CrAg(PS3)2,P2/c,0.9681,5.9527,10.628,23.75,FALSE
LaGe3,P6/mmm,0,5.9557,5.9557,"20.0,""",TRUE
Ba(SnO2)4,P-31m,0,5.9567,5.9567,24.409,TRUE
Cd3Sb,P6/mmm,0,5.9568,5.9568,"20.0,""",TRUE
AlCl3,P-31m,5.524,5.9569,5.9569,22.686,TRUE
CrSn3,P6/mmm,0,5.9571,5.9571,"20.0,""",TRUE
TiCl4,P1,2.3733,5.9582,7.1206,23.18,FALSE
VCl3,P-31m,0.0018,5.9604,5.9604,22.719,TRUE
Ta2Br5,Cm,0,5.961,5.9681,24.913,FALSE
Sr(ClO2)2,P4/nbm,2.8197,5.9622,5.9777,24.264,FALSE
Tc3F8,P1,0.085,5.9623,5.8132,22.209,FALSE
SbCl4,Pm,0.2511,5.964,7.33,22.477,FALSE
CrCu(PS3)2,P2_1,1.0128,5.9666,10.345,23.347,FALSE
Tc2Br5,P2/c,0,5.9691,6.4622,25.167,FALSE
Zr(MoO4)2,P-3m1,3.2029,5.9734,5.9734,27.076,TRUE
TmBiO3,P-3,3.2879,5.9754,5.9754,25.771,TRUE
CrCl3,P-31m,1.6135,5.9763,5.9762,22.676,TRUE
SbSe,Pc,0,5.9772,18.581,23.12,FALSE
OsCl3,P-31m,0.1533,5.98,5.98,22.752,TRUE
Tl2O3,P321,0.2571,5.9805,5.9804,24.184,TRUE
Br3N,P-31m,1.1803,5.9807,5.9807,23.649,TRUE
Pb(CO2)2,P-1,2.9427,5.9822,7.2907,23.559,FALSE
Re2Br7,P2/c,0,5.9855,12.133,23.69,FALSE
AgClO2,Pcca,1.3769,5.9856,6.0962,24.986,FALSE
Pt(NCl)4,P4/mmm,0,5.986,5.986,24.77,TRUE
P2H4PbO4,P4/nbm,4.0217,5.9875,6.0093,26.178,FALSE
NaH4IO2,P-1,3.8925,5.9877,6.5492,24.521,FALSE
ErBiO3,P-3,3.3289,5.9916,5.9916,25.748,TRUE
Tc2Cl7,P2/c,0.0963,5.9922,11.982,23.69,FALSE
PbBrCl,P4/nmm,2.3673,5.9941,5.9941,15.528,TRUE
Nb3F8,P3m1,0.211,5.9946,5.9946,23.755,TRUE
MnPO4,P2_1/c,1.6749,5.9946,10.646,22.722,FALSE
TeAs,P2/c,0,5.9954,18.583,23.12,FALSE
Na2Hf(HO)6,P-31m,3.6071,5.996,5.996,24.24,TRUE
Re2Cl7,P2/c,0.1785,5.9971,11.998,23.69,FALSE
CrO2,Cm,0.1976,5.9971,5.9832,34.022,FALSE
SrH9ClO5,P-1,4.7732,5.9975,7.6346,27.365,FALSE
Li2Cu3F8,P-1,0.324,5.9979,6.1739,24.173,FALSE
CoBr4,P2_1/c,0,5.9981,6.3043,23.09,FALSE
ZnPS3,P-31m,2.1485,5.9985,5.9985,23.233,TRUE
Co3SbO8,P-3m1,0,6,6,22.107,TRUE
TiCl3,P-1,0.0014,6.0005,5.9826,24.506,FALSE
NF3,C2/m,0,6.002,6.002,24.51,TRUE
SnI4,P4/mmm,0,6.004,6.004,23.993,TRUE
BiSbO3,P-3,2.8059,6.0056,6.0067,25.233,FALSE
TiCl3,C2/m,0,6.0075,5.9855,22.878,FALSE
NO2,P1,0,6.0088,6.2568,33.045,FALSE
Li2WS4,P-42m,2.2883,6.009,6.009,22.481,TRUE
VPO5,P4/n,2.5102,6.0097,6.0097,25.788,TRUE
SrH4(SO4)3,P-1,5.3913,6.0112,8.4665,31.219,FALSE
Ag2CN2,P2_1/c,1.5689,6.0145,6.5408,25.774,FALSE
AlCl,Aem2,2.4651,6.0155,6.002,23.14,FALSE
BiCl5,Pmmm,0,6.016,5.3277,23.758,FALSE
TeAs,Pmma,0,6.0161,15.233,23.134,FALSE
As,Pm,1.2465,6.0164,6.8892,23.456,FALSE
Ti2O7,P-1,1.1969,6.0173,6.054,30.894,FALSE
Co3TeO8,P-3m1,0,6.0182,6.0182,22.072,TRUE
BiCl4,Cmmm,0,6.0185,6.8806,22.462,FALSE
Lu(HO)3,P2_1/c,4.2678,6.019,10.449,24.318,FALSE
Sb2Mo,C2/m,0,6.0196,3.3728,23.132,FALSE
Pb(ClO2)2,P4/nbm,1.6046,6.0202,6.0239,24.519,FALSE
LiVF5,P1,1.954,6.0217,6.8701,24.538,FALSE
SbSe,Pmc2_1,0,6.0228,15.296,23.134,FALSE
LiFePO4,Pmma,2.9334,6.0228,8.2408,22.502,FALSE
Tm(HO)3,P2_1/c,4.3336,6.0257,10.838,24.367,FALSE
Mo3O8,P-3m1,1.5408,6.0258,6.0878,22.275,FALSE
RhCl3,P-31m,1.7378,6.0276,6.0276,22.631,TRUE
Ga2S3,P1,0.5612,6.0281,7.9753,38.998,FALSE
Mn3SbO8,C2/m,0,6.0282,6.0282,21.996,TRUE
Na2PbO2,P2/c,2.5515,6.0291,6.9618,25.568,FALSE
LiCuO2,P-1,0.625,6.0299,5.4077,25.051,FALSE
GeCl3,P1,2.7874,6.0308,8.9498,24.253,FALSE
InCl,Pbcm,2.9553,6.0314,6.1987,23.094,FALSE
HoBiO3,P-3,3.3388,6.0315,6.0315,25.183,TRUE
Te2Pt,P2_1/c,1.4307,6.0322,6.3946,21.103,FALSE
SF,P-1,3.4256,6.0323,7.459,25.362,FALSE
TlF3,C2/m,3.0332,6.033,5.9653,23.224,FALSE
Nb2Br5,Cm,0,6.0337,6.0386,24.913,FALSE
Hg2P2S7,C2,2.1689,6.0341,6.2237,25.176,FALSE
NbTe3,P-1,0,6.0383,7.3423,26.333,FALSE
BiSe,Pmma,0,6.0388,15.698,23.134,FALSE
Tc2Cl7,P2_1,0,6.0415,8.903,31.324,FALSE
Er(ReO4)2,P-3,0,6.0415,6.041,27.219,TRUE
KCSN,Pbcm,4.5662,6.0415,7.5291,25.413,FALSE
Hg2ClO,P2/c,1.8213,6.0434,13.348,23.439,FALSE
Nb2O5,P2_1,3.1232,6.0445,11.019,24.381,FALSE
TaCl4,P2_1/c,0.3778,6.0476,11.697,24.509,FALSE
Re2Br5,P2/c,0,6.0488,6.4687,25.205,FALSE
PCl3,Pmn2_1,4.0206,6.0495,9.5353,23.123,FALSE
Sr2GaBi2O7,P2_1,0.1786,6.0554,6.3081,27.532,FALSE
TaCl4,P2_1/c,0,6.0561,8.9883,25.818,FALSE
NbCl4,P2_1/c,0.2765,6.0563,11.801,24.507,FALSE
PSe,Aem2,0,6.057,17.162,23.12,FALSE
GaCl3,C2/m,3.8126,6.0577,6.0598,23.224,FALSE
Re2Cl7,P2_1,0.0122,6.0603,8.8643,31.32,FALSE
Ge3Cl8,P1,2.1365,6.0603,6.9459,33.619,FALSE
NbCl4,P2_1/c,0,6.0641,9.0393,25.822,FALSE
ScSn3,P6/mmm,0,6.0654,6.0654,20.023,TRUE
Al2S3,P1,0,6.066,7.4651,34.117,FALSE
Sn(PS3)2,P312,1.4967,6.0663,6.0663,23.373,TRUE
BiSe,Pc,0,6.067,19.048,23.12,FALSE
Te2Pd,P2_1/c,1.2694,6.0678,6.4272,21.105,FALSE
NaTeF5,Pmc2_1,5.3311,6.068,10.088,25.116,FALSE
BaAlSn4O7,P3m1,0,6.0702,6.0702,23.591,TRUE
MnPS3,P-31m,0.6554,6.0742,6.0738,23.245,FALSE
Nb4IrSe10,P-1,0,6.0759,9.3035,23.406,FALSE
AcSe3,P6/mmm,0,6.0762,6.0762,20,TRUE
W3O8,P-3m1,2.5729,6.0762,6.1409,22.275,FALSE
SbCl3,Pmn2_1,3.5924,6.0779,7.2137,23.123,FALSE
VCl4,P2_1/c,0.1146,6.0784,11.157,24.485,FALSE
B2Se3,P1,0,6.0813,6.3466,38.644,FALSE
ZrCl3,C2/m,0.1731,6.0819,6.2341,23.175,FALSE
Cd3Bi,P6/mmm,0,6.0822,6.0822,"20.0,""",TRUE
FeCl3,P-31m,0.3959,6.0827,6.0827,22.757,TRUE
AsF4,P1,4.3115,6.0828,5.4654,22.37,FALSE
IrCl3,P-31m,2.134,6.0843,6.0843,22.532,TRUE
WO3,P3m1,3.2216,6.0845,6.0845,18.969,TRUE
MgPS3,P-31m,3.054,6.0925,6.094,23.294,FALSE
MoPO5,P4/n,3.1591,6.0972,6.0972,26.121,TRUE
Mn3Co2Te3O16,P1,0.5035,6.0986,6.0695,27.552,FALSE
InS,P2_1/c,1.8875,6.0988,10.488,19.368,FALSE
MoO3,P31m,0.0916,6.0998,6.0998,23.483,TRUE
TlAsS2,P2_1,1.7922,6.1001,11.543,24.784,FALSE
Tl3(MoO4)2,P3m1,0,6.1013,6.1013,27.578,TRUE
SbCl5,Pmmm,0.0158,6.1019,5.0619,23.758,FALSE
PbS,Pma2,2.2504,6.1031,6.8976,23.753,FALSE
YBiO3,P-3,3.3883,6.1043,6.1043,25.768,TRUE
SbO2,P-1,2.2122,6.1046,9.656,30.457,FALSE
CdF2,P31m,3.9449,6.106,6.106,23.168,TRUE
MnCl3,P-31m,0.0071,6.1078,6.1078,22.059,TRUE
LiCu(PO3)3,P-1,0.4016,6.1109,6.9036,25.92,FALSE
HfCl4,P1,3.3814,6.1126,6.6529,23.454,FALSE
PCl3,C2/m,2.5916,6.1132,6.1132,23.541,TRUE
V2Br5,Cm,0,6.1138,6.1233,24.913,FALSE
Fe3OF7,P3m1,2.7605,6.1149,6.1149,22.045,TRUE
Pb3W,P6/mmm,0,6.1152,6.1152,"20.0,""",TRUE
B2S3,P1,1.1287,6.1157,6.0964,38.69,FALSE
YbCl3,C2/m,0.705,6.1162,7.2088,22.454,FALSE
HfCl3,P-1,0.3359,6.1164,6.099,24.037,FALSE
Sr(IO3)2,P2_1,3.7238,6.1179,6.096,27.66,FALSE
TaBr3,P-31m,0,6.1182,6.1182,22.719,TRUE
SrH4(ClO)2,P2/c,4.657,6.1183,6.6613,24.339,FALSE
InPF3,P3,1.4275,6.1194,6.1194,20.259,TRUE
Mg(SnO2)2,Pmmn,3.1189,6.1203,11.019,25.619,FALSE
TlInS2,P2/m,0,6.1225,6.1504,"20.0,""",FALSE
InBr3,Pmc2_1,1.5441,6.1243,7.5003,22.613,FALSE
Bi2W,P-1,0,6.1253,3.4051,22.809,FALSE
Ge4Rh,P4/nbm,0,6.1271,6.1271,22.924,TRUE
SeO3,P31m,1.0055,6.1275,6.1275,23.517,TRUE
CuSeO3,P2_1/c,0.1344,6.1284,12.373,22.104,FALSE
CoBr3,C2/m,1.121,6.1284,6.1284,22.666,TRUE
IrBr4,P2_1/c,0,6.1288,6.5304,23.191,FALSE
InCl,P4/nmm,2.8946,6.1288,6.1276,23.14,FALSE
Cr3Sb5O16,Cm,0,6.1292,6.1292,28.072,TRUE
Mn2Br5,P2/c,0,6.1313,6.8171,26.427,FALSE
TcI4,P2_1/c,0,6.132,7.5858,23.074,FALSE
CoBr3,P-31m,0.9111,6.1326,6.1326,22.978,TRUE
ReI4,P2_1/c,0,6.1332,7.6009,23.106,FALSE
Bi2O5,Pmn2_1,0.0435,6.1334,6.1482,25.596,FALSE
TlBrO3,P3m1,3.3997,6.1348,6.1348,22.116,TRUE
AsCl4,P1,1.2404,6.1379,8.0537,22.548,FALSE
BiF3,P-3,5.0287,6.1381,6.1381,23.442,TRUE
NCl4,P1,1.1717,6.1384,6.898,22.494,FALSE
SnBrCl,P4/nmm,1.8881,6.1405,6.1405,26.468,TRUE
Cu3Se2(ClO3)2,P-1,0.0584,6.1442,8.5984,26.162,FALSE
Ge4Ir,P4/nbm,0,6.1463,6.1463,22.924,TRUE
NaGaH4,Pmma,4.6494,6.1468,7.0638,22.591,FALSE
FeP4,P2_1/c,0.1278,6.1493,11.138,24.453,FALSE
As2Pt,P31m,0,6.1503,6.1504,23.849,TRUE
As2Pd,P31m,0.0958,6.1524,6.154,23.849,FALSE
P2Pt,P31m,0.0049,6.1557,6.153,23.849,FALSE
FeCl4,P2_1/c,0.396,6.1573,6.2802,23.37,FALSE
NiPSe3,P-31m,0,6.158,6.162,23.061,FALSE
YF3,P-31m,7.6204,6.1616,6.1616,22.872,TRUE
PS,P2_1/c,1.9205,6.1638,6.6554,22.075,FALSE
Mn2P4O13,C2,0.8442,6.1646,6.9791,24.643,FALSE
AlN,P4/mbm,2.8133,6.1652,6.1652,"20.0,""",TRUE
Mg(Mo3O8)2,P3m1,0.7297,6.1666,6.1666,26.898,TRUE
Ge3N4,P-6m2,0.8839,6.1676,6.1676,20.011,TRUE
Zr(MoO4)2,P-3m1,3.2285,6.1719,6.1719,22.314,TRUE
VTe3,P-1,0,6.1724,7.1783,26.342,FALSE
U2S,P2/c,0,6.1729,6.9174,20.206,FALSE
NbCl4,P1,0,6.1738,6.3497,22.703,FALSE
AgClO2,P1,0,6.1741,6.727,20.402,FALSE
In2O3,P321,1.9228,6.1743,6.1743,21.755,TRUE
P2Pd,P31m,0.0065,6.1754,6.1725,23.849,FALSE
PbI4,P4/mmm,0,6.1762,6.1745,23.818,FALSE
Mo3O8,Cm,1.2461,6.1763,6.2319,22.184,FALSE
Zn(Mo3O8)2,P3m1,0.5918,6.1774,6.1774,26.273,TRUE
CaMoAsO5,P1,1.3382,6.1784,9.1328,24.472,FALSE
CBr4,P1,0.1261,6.1798,7.4121,22.779,FALSE
LiV3(TeO6)2,P-1,2.0925,6.1799,10.743,26.404,FALSE
LiVF4,Pmma,2.1677,6.18,7.0018,22.63,FALSE
Cu2As4S3Cl2,Pm,1.1628,6.1808,6.8525,23.919,FALSE
NbBr3,P-31m,0,6.1811,6.1811,22.719,TRUE
ZnCl2,P31m,4.5393,6.1873,6.1873,23.168,TRUE
Ge4Pt,P4/nbm,0,6.1883,6.1957,22.926,FALSE
K2CoSe2,Pccm,0,6.1889,6.6565,24.086,FALSE
BiO2,P2_1/m,0.654,6.19,6.9819,22.301,FALSE
ScAg(PS3)2,P312,2.0441,6.1902,6.1902,23.389,TRUE
NiSb2,P31m,0,6.1922,6.1922,23.849,TRUE
K(SbSe2)2,P-1,1.3655,6.1929,6.7947,29.568,FALSE
CaH6C2O7,P-1,3.5204,6.1938,8.3803,26.27,FALSE
Feb-03,P-31m,0.0401,6.1945,6.1945,22.745,TRUE
SnBr3,P1,1.6345,6.2027,8.5327,24.086,FALSE
Ge4Pd,P4/nbm,0,6.2029,6.2042,22.903,FALSE
CuMoO4,P1,0.4309,6.2038,11.048,22.43,FALSE
RuBr4,P2_1/c,0,6.2064,6.5305,23.362,FALSE
Zn(SnO2)2,P2/c,2.95,6.2083,11.085,25.658,FALSE
MoPb3,P6/mmm,0,6.2108,6.2108,"20.0,""",TRUE
W3O8,C2/m,1.8301,6.2122,6.2492,22.218,FALSE
AlBr,Pbcm,2.2806,6.2127,6.3548,23.094,FALSE
ZrCl3,P-1,0.3671,6.2133,6.2112,24.109,FALSE
BiBr3,Pmn2_1,2.3498,6.2134,7.9962,23.123,FALSE
VBr4,P2_1/c,0.0801,6.2149,9.2104,25.797,FALSE
BaP2(HO)4,P4/nbm,5.243,6.2162,6.2421,26.258,FALSE
NiBr2,P2_1/c,0.7127,6.2177,7.4622,26.023,FALSE
V2Re2O11,P1,1.1141,6.2184,7.663,29.496,FALSE
Hg2SO4,P2/c,2.4132,6.2211,8.5806,24.709,FALSE
W3O8,P-3m1,1.6563,6.2222,6.2222,22.196,TRUE
OsBr4,P2_1/c,0,6.2246,6.6144,23.352,FALSE
InAg(PS3)2,P312,1.3938,6.2255,6.2255,23.408,TRUE
Si2Hg6O7,P2/m,1.915,6.2257,10.872,23.806,FALSE
GaBr,Pbcm,2.6262,6.227,6.2373,23.094,FALSE
TlBr3,Pmc2_1,0.7869,6.2277,7.6505,22.613,FALSE
VPO5,P4/nmm,1.9341,6.2287,6.2287,22.191,TRUE
Li2Fe3F8,P-3m1,3.4848,6.2294,6.2294,23.502,TRUE
HfFeCl6,P312,0.0945,6.2307,6.2307,22.678,TRUE
NiSn3,P4/mbm,0,6.2339,6.2332,25.862,TRUE
NiP2,P-3m1,0,6.2357,6.2357,22.86,TRUE
YSn3,P6/mmm,0,6.2367,6.2367,"20.0,""",TRUE
TaBr4,P2_1/c,0.2202,6.2382,13.36,28.223,FALSE
SeF,P-1,1.9285,6.2384,7.1481,25.151,FALSE
IrCl4,P-1,0,6.2414,5.6988,23.15,FALSE
Hg3Bi,P6/mmm,0,6.2444,6.2444,"20.0,""",TRUE
TlCl,Pbcm,3.4459,6.2461,6.2775,23.094,FALSE
VH2SeO5,P-1,2.311,6.2465,6.4186,26.007,FALSE
ScPS4,P-1,1.9039,6.2466,6.5062,24.879,FALSE
BaCO3,P2/m,2.0158,6.2467,6.1927,22.274,FALSE
GaBr,P4/nmm,2.5788,6.2468,6.2463,23.14,TRUE
ZnTeO3,Pca2_1,3.311,6.2526,11.513,23.551,FALSE
H2Pb4SO8,P-1,2.8777,6.2539,7.5298,28.065,FALSE
PdCl2,P2_1/c,1.3216,6.2541,7.5503,26.036,FALSE
Eu(ReO4)2,P-3,0.3146,6.2564,6.2564,27.413,TRUE
SnCCl3,P3m1,0.0307,6.2569,6.2569,20.854,TRUE
TiO2,Pmm2,2.7076,6.2573,6.5212,22.009,FALSE
MgN8,P4/m,0.613,6.2574,6.2574,24.626,TRUE
I3N,C2/m,1.0524,6.258,6.2579,24.763,FALSE
FeSeCl7,P1,1.2459,6.2605,8.0618,28.601,FALSE
BaSbSe2F,P-1,1.3235,6.2608,6.3258,30.924,FALSE
CdPS3,P-31m,2.151,6.2618,6.2618,23.426,TRUE
GdF3,C2/m,4.1066,6.2655,6.2655,23.289,TRUE
CrPb3,P6/mmm,0,6.2656,6.2656,"20.0,""",TRUE
NbCl5,P-1,2.1702,6.2666,6.6002,30.501,FALSE
TaNiTe2,Pmna,0,6.2668,7.9669,24.694,FALSE
Tl2O3,P-62m,0.9471,6.2675,6.2675,15.153,TRUE
Ge2O3,P2_1/m,3.0274,6.2677,3.7125,25.819,FALSE
PtCl2,P2_1/c,1.8219,6.2705,7.6807,26.182,FALSE
MgCl2O,P2_1/c,2.5719,6.2716,7.5517,24.763,FALSE
P3C,P-3m1,0,6.2722,6.2722,21.68,TRUE
Ba(SbO2)4,P-31m,0,6.2754,6.2754,23.952,TRUE
Pr(ReO4)2,P-3,0,6.278,6.2774,27.141,FALSE
TcBr3,P-31m,0,6.2837,6.2837,22.009,TRUE
AlBr,Aem2,2.0677,6.2852,6.2853,23.14,TRUE
ReBr3,P-31m,0.0006,6.2858,6.2858,22.003,TRUE