Formula,Space Group,Band Gap,a,b,c,a=b
Ba3C,P4mm,0,4.7687,4.7834,22.353,FALSE
As2SO6,P2_12_12,4.2166,4.7689,11.285,23.368,FALSE
Sr2P,P-4m2,0,4.7695,4.8069,22.957,FALSE
AsAuO3,P2/c,1.1237,4.7704,11.994,24.909,FALSE
CoH2SeO4,Pc,2.5942,4.7719,5.6879,23.957,FALSE
AsS,P4/nmm,0,4.7745,4.7745,21.297,TRUE
Ag2SeO4,C222,1.5468,4.7746,6.4983,22.026,FALSE
PbO,Pbcm,2.6469,4.7749,5.5938,22.719,FALSE
TlP,P4/nmm,0,4.7754,4.7754,23.942,TRUE
VCl4,P4/mmm,0,4.7756,4.7756,23.812,TRUE
SrCl2,P-4m2,5.3521,4.7765,4.7765,22.656,TRUE
BSbO3,P-1,4.2836,4.7778,5.8969,22.905,FALSE
OsF3,P-31m,0.0885,4.7788,4.7788,22.681,TRUE
Mn(PO4)2,P-1,0,4.7793,4.9373,26.001,FALSE
Ca3Ge,P4mm,0.1376,4.7808,4.785,22.353,FALSE
SrAu,P6/mmm,0,4.7813,4.7813,24.159,TRUE
NF3,Pmn2_1,6.1752,4.7816,7.0747,23.123,FALSE
YC3,P-6m2,0,4.7818,4.7818,"20.0,""",TRUE
Sn,P6/mmm,0,4.7824,4.7947,19.996,FALSE
Rb2Cl,Pmma,0,4.7861,8.724,23.993,FALSE
NaTm(SO4)2,P2_1/m,5.199,4.7861,6.7173,29.955,FALSE
Ag18Te11,P1,0,4.7864,4.8303,52.82,FALSE
MgTi,Pmmn,0,4.7864,5.9584,28.767,FALSE
Co(ClO4)2,P-3,3.0358,4.7864,4.7864,26.246,TRUE
CrSb(PO4)2,P2_1/m,1.9731,4.787,5.8121,31.105,FALSE
TlBi,P4/nmm,0,4.7872,4.7872,23.942,TRUE
BN3,P-3m1,1.2639,4.7878,4.7878,21.198,TRUE
AgClO4,P-42m,2.9247,4.7889,4.7889,21.726,TRUE
Mg2Sb,P-4m2,0,4.7922,4.7895,22.957,FALSE
NCl4,P1,0.7263,4.7924,6.6924,22.595,FALSE
BiF3,Pmn2_1,5.1962,4.7924,6.0764,23.123,FALSE
Rb3Mn2Cl7,P4/mmm,0.7167,4.7943,4.7943,30.486,TRUE
ReF4,P2_1/c,0.1066,4.7961,5.7061,23.115,FALSE
MgWF4,Pccm,2.3593,4.797,11.029,21.623,FALSE
Ti2ZnS5,Pmmn,0.8881,4.7976,13.521,23.201,FALSE
VZnF4,P-1,0,4.7992,5.7309,26.012,FALSE
SnPb,P3m1,0,4.7995,4.7995,20.769,TRUE
NaSbO2,Pca2_1,3.4087,4.8003,6.382,25.544,FALSE
MnH2SO4,Pc,4.1741,4.8011,5.7729,25.872,FALSE
Sr2Sb,P-3m1,0,4.8022,4.8022,23.013,TRUE
CdSb,P3m1,0,4.8024,4.8024,20.274,TRUE
Tl2Cu3(SeO3)6,P-1,0.1629,4.804,9.5917,27.983,FALSE
SbAsO4,P2_1/m,3.5221,4.8053,7.0774,23.39,FALSE
BaI2,Pmma,1.9404,4.8061,8.9352,23.548,FALSE
HfMg6Nb,Pmm2,0,4.8062,6.1412,23.964,FALSE
SO2,P2_1/c,3.0317,4.807,6.2618,24.173,FALSE
CrO3,Pc,0.935,4.808,4.791,22.353,FALSE
LiIn(IO3)4,P-1,3.1383,4.8082,6.493,27.114,FALSE
PdBr2,P-1,0.0948,4.8094,4.5374,24.925,FALSE
B13P2,P-3m1,0,4.8099,4.8099,25.085,TRUE
ZnH2SeO4,Pc,4.4671,4.81,5.7288,23.945,FALSE
PuCl3,P-6m2,0,4.8106,4.8113,24.728,FALSE
Ni(WO4)2,P-1,1.293,4.8106,5.0539,25.287,FALSE
TaF5,P-1,5.883,4.8128,5.3091,29.867,FALSE
CrSi3,P6/mmm,0,4.8131,4.8131,"20.0,""",TRUE
Li2V3(CO3)6,P-1,0.6639,4.8146,12.594,24.523,FALSE
NaAu(SO4)2,P-1,1.8368,4.8178,8.0135,26.403,FALSE
Ag2Te,P6/mmm,0,4.8222,4.8222,24.537,TRUE
TeAu2,P6/mmm,0,4.8226,4.8226,24.537,TRUE
AsBr3,P-6m2,0.7732,4.8229,4.8229,24.623,TRUE
BaAg,P6/mmm,0,4.8235,4.8235,24.159,TRUE
LiFePO4,P2_1/m,3.8925,4.8237,6.2258,23.051,FALSE
TiCl4,P4/mmm,0.7493,4.8261,4.8261,23.891,TRUE
GeF4,P2_1/c,4.4548,4.8271,5.3527,22.462,FALSE
V(CO3)2,P-3,1.4628,4.8276,4.8276,22.222,TRUE
CO2,P3m1,0.0284,4.8283,4.8283,22.029,TRUE
SbPO4,P2_1/m,4.3643,4.8301,6.7919,22.993,FALSE
BaTe2F10,P2/c,5.2169,4.8311,10.224,26.603,FALSE
CBr4,P4/mmm,0,4.8327,4.8327,23.993,TRUE
ZnMoO4,P2/c,3.0685,4.8349,4.8233,24.373,FALSE
FeSb(PO4)2,P2_1/m,1.9044,4.8373,5.9095,31.219,FALSE
Te11Au18,P1,0,4.8378,4.6184,52.643,FALSE
NiI2,P-1,0,4.8393,4.553,24.989,FALSE
ZnSiO3,P-31m,3.259,4.8399,4.8399,23.657,TRUE
NbF4,P2_1/c,0.1274,4.8404,7.8669,25.827,FALSE
Ca2Bi,Pmmn,0,4.8434,6.1306,26.783,FALSE
LiCu2(CO3)2,P1,0,4.8442,5.0523,23.563,FALSE
TaF4,P2_1/c,0.1532,4.8451,7.8626,25.831,FALSE
Li2Cr(PO4)2,P-3,0,4.8454,4.857,29.658,FALSE
Li4Co(PO4)2,P-1,3.0277,4.8486,6.0978,24.545,FALSE
SiP2,P-42_1m,1.9102,4.8504,4.8504,21.526,TRUE
PF3,Fmmm,0.8511,4.8512,4.8512,23.398,TRUE
CoAsS,Pca2_1,0,4.8517,7.1811,23.424,FALSE
KI,P4/mmm,4.0528,4.8519,4.8519,"20.0,""",TRUE
TaF3,P-31m,0,4.8533,4.8533,22.719,TRUE
NaMgSb,P4/nmm,0,4.8554,4.8554,26.896,TRUE
SbCl3,P-6m2,1.3103,4.8597,4.8597,24.623,TRUE
Cu(IO3)2,P2_1/m,0.4268,4.8608,6.3806,26.699,FALSE
Cr3O8,P2/m,0,4.8609,5.9668,22.03,FALSE
Ag2Te,Pmma,0.4092,4.8616,5.8889,23.07,FALSE
LiCoPO4,P-31m,0,4.8621,4.8621,30.116,TRUE
Sb2WO6,P2_1/c,1.131,4.8629,5.6133,28.245,FALSE
PtBr2,P-1,0.0309,4.8636,4.5991,24.88,FALSE
Co2C2O7,C2,0.7152,4.8637,4.865,24.998,FALSE
Cr(PO4)2,P-1,0,4.8638,5.013,26,FALSE
Au18Se11,P1,0,4.8648,4.2993,52.772,FALSE
Co(ClO3)2,C2/m,0.2801,4.8697,6.072,22.732,FALSE
ZnWO4,P2/c,3.8625,4.8699,4.8501,24.457,FALSE
TeAu2,Pmc2_1,0.1991,4.8711,5.9847,23.357,FALSE
Ta2CrO8,P2/c,0,4.8721,5.1644,27.294,FALSE
Pb2CO6,P3m1,0,4.8732,4.8732,25.089,TRUE
V3O2F5,Pmc2_1,1.2173,4.8741,5.0918,27.612,FALSE
GaH5(NF)2,P2/m,2.8144,4.8745,5.8896,25.019,FALSE
SnTe,Pmna,0.1334,4.8757,8.3384,24.071,FALSE
B13As2,P-3m1,0,4.8768,4.8768,25.085,TRUE
SnSe,Pmna,0.0871,4.877,7.8033,24.071,FALSE
Li2Fe(PO4)2,P-3,0,4.8773,4.8771,30.218,TRUE
V(WO4)2,P-1,1.924,4.8792,5.2316,25.384,FALSE
VSb(PO4)2,P2_1/m,1.8884,4.8793,5.9519,31.241,FALSE
SnS,Pmna,0.1236,4.8803,7.4535,24.071,FALSE
Sr2Bi,P-3m1,0,4.8809,4.8809,23.013,TRUE
TaCl4,P4/mmm,0,4.8815,4.8815,23.812,TRUE
FeTe(PO4)2,Pm,0.9183,4.883,9.8598,22.443,FALSE
BaNiSn3,P4mm,0,4.885,4.885,23.559,TRUE
LiMnF5,P2_1,2.3728,4.8851,5.7262,24.477,FALSE
Li2V(CO3)2,P-3,2.496,4.886,4.886,24.224,TRUE
Pb,P-3m1,0,4.8907,4.9224,20.688,FALSE
Sr2Sb,Pmmn,0,4.892,6.4352,27.291,FALSE
CuHClO,P2_1/c,0.2189,4.8922,6.1656,23.775,FALSE
LiMn2F9,P-1,1.3347,4.8924,9.2222,27.937,FALSE
BaAu,P6/mmm,0,4.8936,4.8936,24.159,TRUE
Sr4As2O,P4/mmm,0,4.8948,4.8948,31.98,TRUE
Li2V(PO4)2,P-3,0,4.8977,4.8765,30.104,FALSE
Mg2Ni3O8,P2/m,0.9764,4.8978,5.7388,21.674,FALSE
Te(HO2)2,P2_1/c,1.9849,4.8994,5.2492,24.125,FALSE
Ti(WO4)2,P-1,2.7574,4.9,5.2041,25.403,FALSE
Li4Fe(PO4)2,P-1,4.1115,4.9004,6.1236,21.654,FALSE
Sn3Sb4,C2,0,4.901,4.901,27.842,TRUE
GeCl4,P4/mmm,0.6705,4.9016,4.9016,23.993,TRUE
VS3,P-1,0.1593,4.9018,6.4979,26.332,FALSE
TlSb,P-6m2,0,4.9036,4.9036,"20.0,""",TRUE
Sb(MoO4)2,P2/c,0,4.9037,5.4858,29.45,FALSE
Zn2SiO4,P2_1/m,2.8389,4.9051,6.2157,24.593,FALSE
Zn2Ni3O8,P2/m,0.9456,4.9061,5.7465,23.979,FALSE
AgBrO4,P-4,1.4662,4.9062,4.9062,21.851,TRUE
PdSeO3,C2/m,0.4524,4.9073,4.9073,24.371,TRUE
Nb2CrO8,P2/c,0.488,4.9074,5.9547,27.473,FALSE
BaBr2,P-3m1,4.9739,4.9089,4.9089,23.529,TRUE
Cu2Te,P2_1,0.0382,4.9124,4.936,22.518,FALSE
AlF3,C2/m,8.4202,4.9125,4.9136,23.264,FALSE
P2O5,Pmn2_1,5.2256,4.9132,7.351,25.596,FALSE
Te3SeO8,P-1,2.7611,4.9134,6.8957,29.78,FALSE
LiAsO3,P-31m,3.6967,4.9135,4.9135,22.551,TRUE
Te(HO2)2,Pc,2.0251,4.9147,5.245,24.185,FALSE
LiMnPO4,P2_1/m,3.2106,4.9153,6.2964,23.113,FALSE
VF4,P2_1/c,1.9063,4.918,9.6575,24.488,FALSE
Cr(WO4)2,P-1,1.1433,4.9182,5.1252,25.403,FALSE
H3BrO,Cm,5.2283,4.9241,5.0487,21.069,FALSE
Ta2F5,P1,0.3335,4.9243,4.9186,24.923,FALSE
NbCl4,P4/mmm,0,4.9248,4.9248,23.812,TRUE
Al(HO)3,Cm,4.3458,4.9255,5.113,23.931,FALSE
LiFe2C2O7,P1,2.4768,4.926,4.9527,26.5,FALSE
Sn2P3O10,P2_1/m,0,4.9262,8.7335,29.387,FALSE
As2PHO6,P2_1,4.5271,4.927,10.513,23.927,FALSE
BN,P4/mbm,4.0977,4.9289,4.9304,19.992,FALSE
VOF3,Pc,3.1066,4.9303,5.6736,23.078,FALSE
Ca2Sb,Pmm2,0,4.9305,5.1067,22.957,FALSE
PI3,P-6m2,0.1009,4.9307,4.9307,24.623,TRUE
Ca3Sn,P4mm,0.3249,4.9309,4.9308,22.353,TRUE
Fe2C2O7,C2,2.1099,4.9322,4.9381,24.995,FALSE
SrBr2,P-4m2,4.6674,4.9324,4.9324,22.656,TRUE
Ba2P,P-4m2,0,4.9329,4.9389,22.957,FALSE
Tc2F5,P2/c,0,4.9334,5.4868,25.171,FALSE
CuH2SO5,P-1,0.2338,4.9351,7.6274,25.437,FALSE
LiSb3,P-6m2,0,4.9368,4.9368,22.3,TRUE
Mg(BrO3)2,C2/m,4.2246,4.9379,4.9379,23.412,TRUE
Si3W,P6/mmm,0,4.938,4.938,"20.0,""",TRUE
Ba2HfS4,P4/mmm,0,4.9383,4.9383,31.354,TRUE
InCu(MoO4)2,P2/c,1.1614,4.9383,9.9141,24.419,FALSE
PO2,P2_1/m,3.4068,4.9387,5.8587,22.646,FALSE
CuSe2Br,P222_1,0.7596,4.9393,7.8033,23.088,FALSE
GaN5,Pc,0.6441,4.9397,12.605,26.805,FALSE
BiCl3,P-6m2,1.6893,4.9418,4.9418,24.623,TRUE
LiSn2P3O10,P2_1/m,3.0236,4.9419,8.713,30.37,FALSE
LiCdPO4,P2_1/m,2.9749,4.9427,6.4015,24.731,FALSE
Li(CoO2)3,P1,0.5117,4.943,5.0006,22.494,FALSE
Fe(CoO3)2,P-31m,0.2523,4.9446,5.0068,21.899,FALSE
Sr2As,P-4m2,0,4.9455,4.9027,22.957,FALSE
Cu2Se,P2_1,0.1271,4.9469,4.9514,22.546,FALSE
Si3Mo,P6/mmm,0,4.9473,4.9473,20.043,TRUE
SnF4,P2/c,3.3157,4.9481,4.9451,17.716,FALSE
InBi,P-6m2,0,4.9486,4.9486,"20.0,""",TRUE
PF3,Pmn2_1,5.93,4.9489,7.5538,23.123,FALSE
Cr(CoO3)2,P-31m,0,4.9493,4.9493,21.913,TRUE
Ag2SO4,C222,2.1495,4.9495,6.2901,21.762,FALSE
TcF3,C2/m,0.0855,4.9514,4.9514,22.079,TRUE
CuSe2Cl,P222_1,0.7783,4.9517,7.7233,22.779,FALSE
Li2CrP4O13,P-1,0.344,4.952,7.8409,31.821,FALSE
VF4,P2_1/c,1.7262,4.952,7.4271,25.662,FALSE
TlI,P4/nmm,2.7058,4.9521,4.9164,23.633,FALSE
Ba2Sb,P-3m1,0,4.9533,4.9533,22.747,TRUE
Al(HO)3,P1,4.4537,4.9538,5.1074,23.979,FALSE
AsSe,P4/nmm,0,4.9542,4.9542,21.297,TRUE
NbF3,P-31m,0,4.9549,4.9549,22.719,TRUE
TcF4,P2_1/c,0.0457,4.9552,5.6696,23.112,FALSE
VO2F,Pc,1.6715,4.9554,5.1474,22.598,FALSE
Mg2Sn,P6/mmm,0,4.9558,5.0064,"20.0,""",FALSE
TiSn(PO4)2,P2_1/m,2.2502,4.9575,6.1845,31.018,FALSE
B13Sb2,P-3m1,0,4.9589,4.9589,25.085,TRUE
CdBi,P3m1,0,4.9612,4.9612,20.274,TRUE
HgBi,P3m1,0,4.9628,4.9628,20.274,TRUE
LiVF6,P2_1,3.1865,4.9629,4.6678,27.266,FALSE
Re2F5,P2/c,0,4.9633,5.5477,25.162,FALSE
PdI2,P-1,0,4.9648,4.5169,24.984,FALSE
HPb3,P-3m1,0,4.9659,4.9659,30.11,TRUE
Cr(OF)2,P2_1/c,2.7014,4.9659,8.9044,24.66,FALSE
Rb2I,P-3m1,0,4.9664,4.9664,23.407,TRUE
PtI2,P-1,0.0134,4.9667,4.6312,24.906,FALSE
BSbO3,C2,3.9487,4.9686,4.9679,23.899,FALSE
K2MgCl4,P4/mmm,0,4.9711,4.9711,31.264,TRUE
Li3V4O11F,P1,2.3479,4.9715,4.9767,28.262,FALSE
Nb2F5,P1,0.1558,4.9723,4.9758,24.928,FALSE
Ca3Pb,P4mm,0.2969,4.9724,4.9704,22.353,FALSE
Ca2Bi,Pmm2,0,4.9734,5.2666,22.957,FALSE
ZnGe2WO6,P2/c,2.4092,4.9736,8.9687,24.848,FALSE
Al(HO)3,C2/m,4.0626,4.974,5.0634,24.009,FALSE
Ge2O3,P2_1/c,3.528,4.9746,6.8202,25.584,FALSE
SnSO4,P-1,3.958,4.976,10.06,25.14,FALSE
RbO2,P4/mmm,0,4.9763,4.9763,25.699,TRUE
Ta(WO4)2,P1,2.5046,4.9767,5.2742,25.575,FALSE
Bi2C,P-42_1m,0.6064,4.977,4.977,25.832,TRUE
Li2CrP4O13,P1,0.6505,4.9776,7.883,26.784,FALSE
Ni(ClO3)2,C2/m,0,4.9778,5.9708,23.098,FALSE
LiCuCO3,P-1,2.0964,4.9782,5.0597,23.354,FALSE
PuBr3,P-6m2,0,4.9792,4.9732,24.728,FALSE
CuN3,Pccm,0.222,4.9806,5.8138,21.248,FALSE
V2Te2O7F2,P-1,2.4907,4.9809,7.255,24.427,FALSE
W3O8,P-1,2.6609,4.9809,5.4587,25.192,FALSE
PO2,Pmn2_1,5.1784,4.9814,6.1578,25.995,FALSE
Mn2NiO6,P-31m,1.4542,4.9818,4.9835,21.913,FALSE
Li2VP4O13,P-1,1.804,4.9822,7.8462,31.044,FALSE
RuF4,P2_1/c,0.5458,4.9829,5.4359,23.373,FALSE
Li4V(TeO4)3,P2,0.3247,4.9843,5.0514,28.127,FALSE
Mo3P2,C2/m,0,4.985,3.3234,22.034,FALSE
TaF4,P2_1/c,0.3897,4.9862,10.435,24.496,FALSE
BiBO3,P2_1/c,3.7412,4.9862,8.276,23.597,FALSE
Hg2WO4,P2/c,2.2392,4.9876,8.1547,24.538,FALSE
Sn(PO3)2,Pc,4.8258,4.9877,6.9909,25.642,FALSE
MnNiO3,P-3,1.4054,4.9879,4.9879,25.072,TRUE
Sn3PO6,Pc,0,4.9884,11.354,24.088,FALSE
Al2O3,P321,4.8346,4.9886,4.9886,24.184,TRUE
SrP,Pmm2,0,4.9895,3.9778,27.111,FALSE
TiCuF6,P-1,0.6249,4.9912,5.285,23.52,FALSE
Mo(WO4)2,P-1,1.927,4.9929,5.4119,25.444,FALSE
Bi2B13,P-3m1,0,4.9931,4.9931,25.085,TRUE
BC2N,Amm2,0.8133,4.9946,5.0238,20.541,FALSE
SiO2,C2,3.4312,4.9951,4.9951,24.51,TRUE
CdH2SeO4,Pmn2_1,4.2024,4.996,5.9676,24.255,FALSE
Mo3O8,P-1,1.7562,4.9967,5.376,25.601,FALSE
CI4,P4/mmm,0,4.9987,4.9987,23.993,TRUE
AlBiO3,P2_1/c,3.2891,5.0016,8.0101,24.45,FALSE
TaS3,P-1,0.294,5.0022,6.7545,26.333,FALSE
Ba2ZrS4,P4/mmm,0,5.0025,5.0025,29.283,TRUE
UF6,P2_1/m,2.7635,5.0037,9.5138,25.237,FALSE
Li2Mo(PO4)2,P-3,0,5.0046,5.0046,30.171,TRUE
LiWF6,P2_1/c,3.4707,5.0048,10.133,27.092,FALSE
LiVOF3,P2_1/c,2.1386,5.0056,7.2727,25.066,FALSE
HPb,P-3m1,0.0001,5.006,5.006,23.722,TRUE
Si2H2O5,P1,2.8536,5.0066,6.1166,26.071,FALSE
MgCr2F12,P-1,1.3039,5.007,5.2485,25.887,FALSE
Al(HO)3,P-1,4.1711,5.0073,8.8182,24.011,FALSE
Hg2MoO4,P2/c,2.2549,5.0099,7.9989,24.603,FALSE
B3C10N3,Pmm2,0.814,5.0117,8.6604,"20.0,""",FALSE
Co2TeCl2O3,P2_1/m,1.6819,5.0123,6.545,29.155,FALSE
OsF4,P2_1/c,0.7344,5.0132,5.4664,23.379,FALSE
TaPbF7,Pm,4.9096,5.014,6.5125,23.263,FALSE
ZnCu(SiO3)2,P2/c,0.1473,5.0141,9.6042,24.955,FALSE
HfCl4,P4/mmm,2.0428,5.0141,5.0141,23.891,TRUE
GeO2,C2,1.9953,5.0156,5.0156,24.588,TRUE
HgSO4,Pmn2_1,2.2088,5.0168,6.3996,23.598,FALSE
Mg2Bi,P-4m2,0,5.0183,4.9894,22.957,FALSE
Sb(WO4)2,P-1,0,5.0186,5.6023,25.408,FALSE
TiGeO3,P-3,1.8012,5.0217,5.0217,24.059,TRUE
Sr2GaNi2O7,Pm,0,5.0219,5.3996,29.649,FALSE
Li2Nb(PO4)2,P-3,0,5.0258,5.0296,30.297,FALSE
Ba2Sb,Pmmn,0,5.0259,6.8932,27.94,FALSE
Sn(WO4)2,P-1,3.4085,5.0265,5.4663,25.422,FALSE
NbS3,P2_1/m,0.4068,5.0275,6.8013,26.288,FALSE
MgGe2WO6,P2/c,2.2463,5.0277,8.7991,24.873,FALSE
ScClO,P4/nmm,2.7141,5.028,5.028,21.919,TRUE
MoF4,Pc,2.7862,5.0285,5.3044,22.733,FALSE
Li5Zn4(BO3)4,P1,0.0471,5.0291,5.0453,29.476,FALSE
Ba2Bi,P-3m1,0,5.0309,5.0309,22.747,TRUE
Mg2Bi,P-3m1,0,5.0315,5.0315,23.013,TRUE
AsF3,Pmn2_1,5.5435,5.0315,6.9878,23.123,FALSE
LiB(HO2)2,P2_1/c,3.5958,5.032,7.8294,25.532,FALSE
ZrF4,P4/nbm,5.2711,5.0329,5.0385,22.922,FALSE
Li4VF8,P2,2.0226,5.0333,5.1771,25.805,FALSE
LiV2O4,P2_1/m,0.9386,5.0337,6.0396,25.96,FALSE
RuF3,P-31m,0,5.0345,5.0345,22.566,TRUE
NbI4,P2_1/c,0,5.0365,15.631,25.717,FALSE
LiCrP4O13,P1,0,5.0369,7.7774,32.686,FALSE
Co2NiO6,C2/m,1.0728,5.0386,4.9419,21.873,FALSE
Mn2F7,P2_1,0.6005,5.039,7.2611,31.216,FALSE
V2Zn2O7,P2/m,1.953,5.0391,5.9094,25.474,FALSE
KRe2O4F7,P2,3.1559,5.0398,5.4097,27.118,FALSE
Ta2TiZn2O8,P-1,0.6076,5.0404,5.7226,28.934,FALSE
HfF4,Pc,6.7305,5.0404,5.329,22.91,FALSE
Sr3Si,P4mm,0.1424,5.0406,5.0362,22.353,FALSE
NpBr3,P-6m2,0.0263,5.0417,5.0417,24.791,TRUE
CO,Cmme,5.5297,5.042,4.6294,22.719,FALSE
MgSnF4,P2,4.9544,5.0422,5.4412,25.106,FALSE
CuMoF6,P-1,0,5.0458,5.4268,23.685,FALSE
Sb2O5,P2_1/c,1.2496,5.0458,9.098,29.107,FALSE
LiCu(PO3)4,P1,0.5298,5.0465,6.9544,26.327,FALSE
Li3V(OF)2,P2/c,0.2541,5.0467,5.0454,23.426,FALSE
Zn3Cu,P6/mmm,0,5.0472,5.0469,20,FALSE
ZnTeMoO6,P2_12_12,3.1117,5.0472,5.3371,27.736,FALSE
I2O5,P2_1,2.7277,5.0497,11.033,22.994,FALSE
Bi6W4O21,P1,0,5.0535,4.9816,38.251,FALSE
TcO3F,P2_1/c,2.4938,5.0536,9.2966,24.672,FALSE
Al(HO)3,P1,4.2635,5.056,8.7779,24.129,FALSE
Zn2Fe3O8,P2/m,0,5.0576,6.043,21.803,FALSE
LiCuCO3,P1,2.0867,5.0578,5.0732,19.289,FALSE
SiN3,P-3m1,0.832,5.0579,5.0579,21.405,TRUE
Mn2FeO6,P-31m,0.1864,5.0589,5.1022,21.926,FALSE
LiVF4,P2_1/c,2.1953,5.0591,7.3315,26.034,FALSE
VOF3,P2_1/c,3.5796,5.0593,9.381,24.573,FALSE
Rb2Br,Pmma,0,5.0612,8.9454,23.993,FALSE
Zn2Cu(AsO4)2,P-1,0.6178,5.0616,5.3622,24.838,FALSE
RbI,P4/mmm,3.934,5.0619,5.0619,"20.0,""",TRUE
TiF3,P-1,0.4007,5.062,5.2115,23.573,FALSE
Mn2CrO6,P-31m,0.8647,5.0625,5.0622,21.922,TRUE
VF5,P-1,2.6315,5.0628,7.1391,23.66,FALSE
Al(HO)3,P2_1/c,4.3762,5.0643,8.8254,23.706,FALSE
MnCSO7,P2_1/m,0.0026,5.0648,6.207,30.1,FALSE
CuH2SeO5,P-1,0,5.0652,10.001,24.107,FALSE
Zn2Co3O8,P2/m,0.0015,5.0659,5.7726,24.167,FALSE
Li2MoP4O13,P-1,1.9258,5.0674,7.9649,32.409,FALSE
CuAsO3,P-31m,0,5.0678,5.0676,23.91,TRUE
NaAsO2,Pca2_1,4.3315,5.0702,6.7093,25.095,FALSE
WF4,P2_1/c,3.3651,5.0708,5.8286,22.274,FALSE
CoTeMoO6,P2_12_12,2.4365,5.0739,5.3136,27.489,FALSE
Ba2As,P-4m2,0,5.0756,5.0868,22.957,FALSE
Te(WO4)2,P1,2.1315,5.0756,5.8315,25.287,FALSE
Sb4Pb3,C2,0,5.0762,5.0762,27.84,TRUE
Li2FeP4O13,P-1,0.0479,5.0794,7.8621,32.73,FALSE
CuTe2Cl,P222_1,0.7781,5.0797,8.0915,22.718,FALSE
LiVF5,P2_1,1.9259,5.08,5.8682,24.396,FALSE
Sr3Ge,P4mm,0.1264,5.0801,5.073,22.353,FALSE
NbF4,P2_1/c,0.4267,5.0802,10.243,24.49,FALSE
InCl3,Pm,2.4989,5.0815,7.3816,23.002,FALSE
AlBr3,P2/m,1.6839,5.0822,7.2186,22.935,FALSE
TlFeS2,C2/m,0,5.0824,6.0743,24.344,FALSE
Li2P4WO13,P-1,3.0855,5.0826,7.9782,32.873,FALSE
Mn(CoO3)2,P-31m,0,5.0828,5.0935,21.903,FALSE
ZnGeO3,P-31m,2.7475,5.083,5.083,23.707,TRUE
TlBi,P-6m2,0,5.0833,5.0833,20,TRUE
PbWO4,P2/c,3.5735,5.0833,5.2166,24.404,FALSE
SbBr3,P-6m2,0.9074,5.0882,5.0882,24.623,TRUE
ZrCl4,P4/mmm,1.7069,5.0884,5.0884,23.891,TRUE
BeCl2,C2,5.6143,5.0884,5.7972,24.666,FALSE
AgSb2F12,P-1,0.4542,5.0887,5.4692,27.632,FALSE
RhC3,P-1,0,5.0889,5.0304,27.286,FALSE
Nb2MoO8,P2/c,1.543,5.091,6.0068,27.562,FALSE
Cl2O5,P2_1,2.0688,5.0922,11.098,23.19,FALSE
Sr2Cu2BiO7,Pmc2_1,0,5.0945,5.1399,30.3,FALSE
V(TeO3)4,P1,1.4855,5.0945,8.9923,24.282,FALSE
PbCl3,P1,0.7681,5.0961,7.4343,24.033,FALSE
CrPO5,P-1,0.3778,5.0964,8.1816,29.731,FALSE
LiTl,P-6m2,0.0601,5.0975,5.0969,25.767,FALSE
LiBi3,P-6m2,0,5.098,5.098,22.3,TRUE
Cu2S,P2_1,0.5772,5.0982,5.1104,22.561,FALSE
Sr2Cu2NiO7,Pmc2_1,0,5.0992,5.1321,29.484,FALSE
Si3P,P2_1/m,0.08,5.0993,10.418,20.014,FALSE
Mn5O9F,P1,0.704,5.0997,7.8209,22.144,FALSE
BaI2,P-3m1,3.9853,5.1016,5.1016,22.742,TRUE
BaCl2,P-4m2,5.2257,5.1017,5.1017,22.656,TRUE
VBr4,P4/mmm,0,5.1026,5.1026,24.723,TRUE
Bi4Pb3,C2/m,0,5.1035,5.1035,27.827,TRUE
Mg2Co3O8,P2/m,0,5.1035,5.7564,24.266,FALSE
MoP4O13,P1,1.3489,5.1039,7.9186,25.485,FALSE
MgGe2,C2/m,0,5.1043,4.6638,23.148,FALSE
V3Zn2O8,P2/m,1.4234,5.1052,5.9921,21.836,FALSE
InCl3,Pmma,2.41,5.1061,7.3897,22.613,FALSE
PbWO4,P2_1/c,3.4537,5.1063,13.423,23.589,FALSE
Sr2FeCu2O7,Pmc2_1,0,5.1067,5.1347,29.598,FALSE
AsPO4,Pmn2_1,4.1621,5.107,7.6434,25.405,FALSE
NaAsO2,P2_1/c,4.2768,5.1075,6.733,24.94,FALSE
Fe4Cu2S7,Pmma,0,5.1098,8.2762,28.863,FALSE
TiSnO3,P-3,2.2146,5.1118,5.1118,24.414,TRUE
Ta2MoO8,P2/c,0.9039,5.1124,5.9637,27.307,FALSE
Ba3Si,P4mm,0.1187,5.1128,5.116,22.353,FALSE
Ba2Bi,Pmmn,0,5.1131,6.9958,27.768,FALSE
GeAsSe,P222_1,1.7884,5.1137,10.378,23.389,FALSE
Si2H2O5,P2,5.6211,5.1139,5.5364,26.979,FALSE
Sr2Cu(BiO3)2,Pmna,0,5.1141,5.4728,29.029,FALSE
Sr2Cu2SbO7,Pmc2_1,0,5.1144,5.1765,30.074,FALSE
Zn3P,P6/mmm,0,5.1153,5.1153,20,TRUE
Te2O3F2,P-1,3.2906,5.1167,6.1725,26.118,FALSE
Sr2Bi,Pmmn,0,5.119,6.1872,30.466,FALSE
Sr2Cu2TeO7,Pmc2_1,0,5.1226,5.1904,30.001,FALSE
Cr3O8,C2/m,0.6189,5.1228,5.1221,26.242,TRUE
AsI3,P-6m2,0.3776,5.1255,5.1255,24.623,TRUE
Ba3Ge,P4mm,0.0661,5.1263,5.1332,22.353,FALSE
Nb2WO8,P2/c,2.184,5.1266,5.9743,27.375,FALSE
BBr,P4/nmm,2.5359,5.1272,5.1272,18.013,TRUE
Br4N,P1,0.2202,5.1275,7.2998,22.481,FALSE
Sr2CoCu2O7,Pmc2_1,0,5.1278,5.146,29.438,FALSE
Ta2WO8,P2/c,1.5489,5.13,5.9682,27.415,FALSE
Mn2F7,P2/c,0.2151,5.1311,9.8696,23.31,FALSE
Ge3F8,P1,2.1156,5.1315,9.7332,32.261,FALSE
VF4,P2_1/c,2.3711,5.1321,5.3638,23.408,FALSE
Zn2Te3O8,C2,3.3445,5.1321,7.0322,24.99,FALSE
ZnCu(GeO3)2,P2/c,0.1667,5.1325,9.8623,24.859,FALSE
Ti3V2O9,P2/c,1.1011,5.1328,6.712,28.429,FALSE
Zn2Cr3O8,P2/m,0.6059,5.1337,5.8764,24.172,FALSE
CrI5,P2/c,0,5.1344,12.305,23.523,FALSE
Sr2CrCu2O7,Pmc2_1,0,5.1347,5.2798,29.486,FALSE
LiNiPO4,P2_1,2.533,5.1352,8.4709,27.207,FALSE
MnTeMoO6,P2_12_12,2.1897,5.1358,5.3797,27.641,FALSE
Li(FeO2)3,P31m,0.5844,5.1369,5.1364,23.601,TRUE
K2I,Pmma,0.0357,5.1372,8.799,23.993,FALSE
Sn(CCl)2,Pmma,0.6166,5.1377,9.2844,23.871,FALSE
SbF4,P422,2.4926,5.1384,5.1566,22.371,FALSE
Br2O5,P2_1,2.2225,5.1385,11.225,23.196,FALSE
Tc2O7,Pmma,0,5.1392,5.3931,27.207,FALSE
SnCl4,P4/mmm,1.299,5.14,5.14,23.993,TRUE
SiBr4,P4/mmm,0.2086,5.1406,5.1406,23.993,TRUE
FeF4,Pc,1.5476,5.1422,5.1384,22.458,FALSE
Li2Cr3O6,P3,0.509,5.1429,5.1414,23.626,FALSE
Fe4Cu2S7,Pmm2,0,5.1432,8.1165,23.79,FALSE
Al(HO)3,P1,4.412,5.1434,8.6741,23.929,FALSE
GaF3,C2/m,5.9723,5.1435,5.1636,23.264,FALSE
Sr2TiCu2O7,Pmc2_1,0,5.1476,5.2738,29.582,FALSE
TiBr4,P4/mmm,0.2023,5.148,5.148,23.891,TRUE
AgBi2F12,P-1,0.3638,5.1492,5.6056,28.061,FALSE
Li2NbP4O13,P-1,0.2624,5.1508,8.0234,32.879,FALSE
Ni2Te3O8,C2,2.5706,5.1509,6.6482,25.122,FALSE
TiOF2,P2_1,3.8321,5.1521,8.7759,26.176,FALSE
MnTlO3,P-31m,0,5.1536,5.1536,24.291,TRUE
LiCoPO4,P-3,2.9731,5.1554,5.1554,26.379,TRUE
KFe2S3,Pmma,0,5.1558,8.5175,23.918,FALSE
CuTe2Br,P222_1,0.813,5.1576,8.2819,22.975,FALSE
PbF4,P4/nbm,1.7152,5.158,5.1483,22.427,FALSE
Li2(FeO2)3,P31m,0,5.1581,5.2096,21.596,FALSE
TlCl3,Pm,1.4932,5.1584,7.6381,23.014,FALSE
TiF4,P1,4.3064,5.159,5.4589,22.755,FALSE
Co2Te3O8,C2,2.4755,5.1628,6.8923,25.103,FALSE
Li2TeO3,C2/m,3.9402,5.163,5.4337,24.381,FALSE
Sr2Cu2SnO7,Pmc2_1,0,5.1638,5.1877,29.949,FALSE
MnSb2F12,P-1,3.1845,5.1644,5.5119,27.452,FALSE
Li8Cr3TeO12,P2,0.7404,5.1648,5.0961,26.977,FALSE
Ga2O3,P321,2.687,5.1654,5.1654,24.184,TRUE
PO2,P1,2.5951,5.1659,6.7704,33.303,FALSE
Sb4Br2O5,P2_1/c,2.8648,5.1661,13.447,25.552,FALSE
Nb2ReO8,P2/c,0.1331,5.1662,5.9243,27.493,FALSE
Li3V2(O2F)2,Pm,1.1761,5.1715,9.1401,25.832,FALSE
NO2,Pmn2_1,1.233,5.1732,4.8089,25.995,FALSE
Tc2F7,P2_1,0,5.1733,7.6147,31.326,FALSE
Re2F7,P2/c,0.2633,5.1736,10.517,23.69,FALSE