Formula,Space Group,Band Gap,a,b,c,a=b
TiTe2,P-3m1,0,3.7804,3.7804,23.447,TRUE
ZrSe3,Pmmn,0.4482,3.7804,5.4817,26.264,FALSE
AlSe,P-1,2.1278,3.7804,11.352,25.602,FALSE
YCl3,Pmmn,3.7199,3.781,8.498,24.855,FALSE
InGaS3,Pmn2_1,2.0327,3.7818,6.2205,27.26,FALSE
NbTe5Pd,Pmc2_1,0,3.782,15.649,24.463,FALSE
TaTe5Pt,Pmma,0,3.7829,15.617,24.518,FALSE
TbSn2,P4/mmm,0,3.7831,3.7831,22.621,TRUE
Ti3H2O7,Pm,2.5071,3.7832,9.339,27.838,FALSE
AlSe,C2/m,1.6048,3.7834,5.3693,23.439,FALSE
CdSbS2Cl,Pmc2_1,1.2569,3.7836,10.339,25.525,FALSE
NaMnAs,P4/nmm,0,3.7837,3.7837,24.997,TRUE
AlSe,P-6m2,0.3117,3.7845,3.7845,26.234,TRUE
ZnCo2S5,Pmmn,0,3.7846,13.148,23.408,FALSE
FeCuS2,P3m1,0,3.7846,3.7853,22.965,FALSE
UNCl,P4/nmm,0,3.7852,3.7852,25.395,TRUE
PdS,P-3m1,0,3.7866,3.7866,23.678,TRUE
PtSe,P-3m1,0,3.7866,3.7866,23.445,TRUE
Ta3Te14Pd3,P2_1/m,0,3.7882,22.137,31.274,FALSE
ScI,P-3m1,0,3.7896,3.7896,26.27,TRUE
NdS3,P4/nmm,0,3.7897,3.7899,29.438,TRUE
N2,P4/mmm,3.3067,3.79,3.79,"20.0,""",TRUE
AlSe,P-3m1,2.0784,3.7905,3.7905,24.623,TRUE
BaCuReO5,P4mm,0,3.7921,3.7921,25.263,TRUE
Y2Cl5,P2_1/m,0.4564,3.7927,14.434,26.54,FALSE
ZnCr2O5,Pmmn,0,3.7928,11.477,24.148,FALSE
TmBr2,P-3m1,0,3.7929,3.7929,23.842,TRUE
TbBr,P-3m1,0,3.7931,3.7931,26.638,TRUE
AlSe,P3m1,0.4863,3.7934,3.7934,21.25,TRUE
Sc2Ge,P-3m1,0,3.7935,3.7935,22.695,TRUE
Y2Cl3,C2/m,0.7872,3.7937,9.517,25.256,FALSE
Ta3Te14Pd3,Pm,0,3.7941,21.991,24.375,FALSE
NbTe4Ir,P2_1/m,0.0287,3.7946,12.586,24,FALSE
Ca5Y,P1,0,3.7948,7.3163,25.343,FALSE
Yb3(SF2)2,P4/mmm,0,3.7953,3.7953,30.707,TRUE
TbCl3,Pmmn,3.869,3.7954,8.4944,23.98,FALSE
In2GaBiS6,P2_1/m,0.5896,3.7958,12.457,31.992,FALSE
GaSe,P-1,1.8295,3.7965,11.353,25.599,FALSE
Ca5La,P1,0,3.7977,7.3897,25.339,FALSE
MgCuGe,P4/nmm,0,3.7982,3.7982,28.671,TRUE
UCl3,Pmmn,0.0942,3.7985,8.6323,24.951,FALSE
P2Pb,Pmc2_1,0.4052,3.7993,10.692,26.149,FALSE
ScPb5,Pmmm,0,3.7995,7.6876,23.46,FALSE
YBr,P-3m1,0,3.8002,3.8002,25.8,TRUE
TcS,P4/nmm,0,3.8003,3.8003,23.119,TRUE
RbMnP,P4/nmm,0,3.8006,3.8006,26.632,TRUE
ReS,P4/nmm,0,3.8008,3.8008,23.119,TRUE
Os3Se4,P-3m1,0,3.8011,3.8011,27.542,TRUE
Mo2H2O7,P2_1,2.2553,3.8013,9.2803,25.753,FALSE
CaHBr,P4/nmm,4.1537,3.8013,3.8013,25.325,TRUE
Ca2N,P-4m2,0,3.8015,3.8041,22.957,FALSE
BaFeS,P4/nmm,0,3.8019,3.8019,25.649,TRUE
TbCBr,C2/m,0,3.8022,4.0034,26.688,FALSE
BaTaCuO5,P4mm,0,3.8023,3.8023,25.372,TRUE
GaSe,P-6m2,1.8934,3.8024,3.8024,24.817,TRUE
BiF5,Pmma,0.6184,3.8028,8.9215,23.903,FALSE
GaSe,C2/m,1.6545,3.8029,5.3029,23.438,FALSE
SiTe,Pmmn,0.744,3.8033,6.1213,21.788,FALSE
Ti3H2O7,P2_1,2.5606,3.8033,9.4475,27.881,FALSE
MoBr2,C2/m,0.6177,3.8037,4.2571,23.28,FALSE
Zr2CuGe4,P4/nmm,0,3.8059,3.8022,34.955,FALSE
TaTe4Ir,P2_1/m,0.0242,3.806,12.573,23.997,FALSE
CaSn4S9,Pmm2,0.9169,3.8062,9.6133,29.767,FALSE
Tb5Cl8,P2/m,0,3.8063,13.28,26.181,FALSE
MgMn2O5,Pmmn,0,3.8063,11.181,24.009,FALSE
GdBr,P-3m1,0,3.8068,3.8068,26.8,TRUE
Y2NCl3,C2/m,2.1569,3.8068,9.6569,25.446,FALSE
LiCuF4,Pc,0,3.807,5.1004,29.27,FALSE
MgMo2O5,Pmmn,0,3.8072,12.061,25.933,FALSE
ZrSe2,P-3m1,0.4588,3.8075,3.8075,23.185,TRUE
SrMg2,P-6m2,0,3.8076,3.8076,25.948,TRUE
V2ZnO5,Pmmn,2.1769,3.8078,11.483,24.246,FALSE
ScI3,Pmmn,1.4503,3.8079,11.527,24.855,FALSE
Ga4Se3,Pmn2_1,1.2488,3.8083,11.187,30.194,FALSE
GeAs,C2/m,1.6504,3.809,11.243,25.248,FALSE
Li2Nb4O11,C2/m,2.538,3.8091,8.4343,25.788,FALSE
Al2Se5,C2/m,1.7101,3.8092,7.6172,24.101,FALSE
YClO,P-3m1,4.9464,3.8094,3.8094,26.366,TRUE
CaHClO,P3m1,3.6422,3.8096,3.8096,23.451,TRUE
TaS,P4/nmm,0,3.8097,3.8097,23.448,TRUE
NbIO2,P2_1/m,0.9231,3.8097,3.9715,27.4,FALSE
Y5Cl8,P2/m,0,3.8098,14.326,25.194,FALSE
Fe3Te4,P2_1/m,0,3.8101,6.3067,28.108,FALSE
MoSe,P4/nmm,0,3.8105,3.8105,23.354,TRUE
As2Se3,P-3m1,0.6571,3.8105,3.8105,24.579,TRUE
HoSe3,Pmma,0,3.8108,3.8373,30.431,FALSE
ZnS,P3m1,0,3.8109,3.8109,76.55,TRUE
B2Te5,C2/m,0.5138,3.8111,7.7926,24.161,FALSE
Mn(SbS2)2,C2/m,0.9429,3.8112,6.536,24.732,FALSE
SiCl2,P-3m1,2.1863,3.8112,3.8112,23.732,TRUE
CrCl2,P2_1/c,0.5042,3.8116,6.2558,21.575,FALSE
ZnS,P3m1,0,3.8117,3.8117,76.585,TRUE
Mo2HO6,P1,0,3.8124,3.8367,26.916,FALSE
As2Pd,P2_1/m,0,3.8126,4.4149,24.556,FALSE
YCBr,C2/m,0,3.813,4.0047,26.616,FALSE
CaSb2O5,Pmm2,0,3.8131,5.0952,24.11,FALSE
WBr2,C2/m,0.4731,3.8136,4.3142,23.323,FALSE
SbCl5,Pmma,0.2522,3.8139,12.817,23.858,FALSE
WSe,P4/nmm,0,3.8141,3.8141,23.354,TRUE
TmSe3,Pmma,0,3.8141,3.8437,30.381,FALSE
HoBrO,P-3m1,4.2441,3.8144,3.8144,26.68,TRUE
YS,P4/nmm,0,3.8153,3.8153,23.289,TRUE
Cd(HO)2,P3m1,2.0792,3.8157,3.8157,22.867,TRUE
MnBiS2Br,P2/m,0,3.8159,10.361,23.081,FALSE
PrS3,P4/nmm,0,3.8161,3.8158,29.512,FALSE
CrCuSe2,P3m1,0,3.8167,3.8167,25.082,TRUE
Ga2Se5,C2/m,1.6559,3.8167,7.7629,24.099,FALSE
LiFe2O2F3,Cm,1.4945,3.8169,5.3556,29.79,FALSE
VBr2,P-3m1,1.204,3.8171,3.8171,22.903,TRUE
SnO,P4/nmm,3.0232,3.8178,3.8178,22.324,TRUE
SiTe2,P-3m1,0,3.8179,3.8179,23.271,TRUE
B2Te5,P-1,0.0018,3.8179,7.8337,24.185,FALSE
HoBrO,Pmmn,4.5752,3.8179,4.133,26.213,FALSE
OsBr2,P-3m1,1.271,3.8181,3.8181,23.24,TRUE
GaF3,Pmmm,5.2717,3.8182,5.9062,22.969,FALSE
Ca2Cu(ClO)2,P4/mmm,0,3.8184,3.8184,25.71,TRUE
IrBr2,P-3m1,0,3.8189,3.8189,23.069,TRUE
DySe3,Pmma,0,3.8191,3.8428,30.585,FALSE
Y7Cl10,P-1,0,3.8194,16.855,26.852,FALSE
CuI,Pmma,0.2278,3.8194,3.8221,23.042,FALSE
Al2Se5,P1,1.5938,3.8194,7.6354,24.09,FALSE
CuBr,P4/nmm,1.599,3.8199,3.8199,23.172,TRUE
ErSe3,Pmma,0,3.82,3.8511,30.429,FALSE
TbPb2,P4/mmm,0,3.8205,3.8205,22.621,TRUE
Os3Se4,P2_1/m,0,3.8209,6.0205,28.105,FALSE
MgCoGe,P4/nmm,0,3.8217,3.8217,23.964,TRUE
GeF4,P4/mmm,4.2531,3.8221,3.8221,23.818,TRUE
Sb2Pt,P2_1/m,0,3.8225,5.9678,24.525,FALSE
BaCuWO5,P4mm,0,3.8226,3.8226,25.767,TRUE
ThBr2,P-6m2,0,3.8227,3.8227,24.529,TRUE
CoGe3,P-6m2,0,3.8232,3.8234,24.981,TRUE
MgCl2,C2/m,4.6768,3.8238,6.9522,24.833,FALSE
NCl3,P-6m2,0,3.8239,3.8239,24.623,TRUE
CdSbS2Br,P2/m,1.1367,3.8241,10.429,25.644,FALSE
GaSe,P-3m1,1.6296,3.8249,3.8249,24.623,TRUE
SbBrO,P4/nmm,1.7199,3.8273,3.8273,25.596,TRUE
Fe3Te4,P-3m1,0,3.8275,3.8275,27.542,TRUE
MnSbSe2Br,Pmc2_1,0.1153,3.8276,10.413,25.519,FALSE
Ti3H2O7,P2_1/m,2.3748,3.8276,9.5506,28.263,FALSE
Ce4C2Br5,Pmmm,0,3.8282,8.1793,25.976,FALSE
YbClO,P-3m1,0,3.8292,3.8292,26.373,TRUE
AgBr,Pmma,0.9532,3.8298,3.9298,23.042,FALSE
Ta2O5,Pmmn,3.9846,3.8298,12.479,24.336,FALSE
LiFe2F5,Pmma,2.8238,3.8299,11.495,19.851,FALSE
UBrN,P4/nmm,0,3.8309,3.8309,25.836,TRUE
MgMnGe,P4/nmm,0,3.8309,3.8309,24.352,TRUE
Li2Cu2F7,P2_1,0,3.8309,5.2303,29.469,FALSE
PtSe,P3m1,0,3.8318,3.8318,21.231,TRUE
In2S3,P-3m1,1.2342,3.8319,3.8319,26.456,TRUE
Ta2O5,P2_1/m,2.9786,3.8333,6.6798,27.122,FALSE
Ca2CoO3,C2/m,1.1445,3.8338,3.8338,24.235,TRUE
TlCu3S2,C2/m,0.8786,3.8339,7.4203,27.03,FALSE
LuIO,P4/nmm,3.3049,3.8355,3.8355,25.963,TRUE
CeS3,P4/nmm,0,3.8361,3.8358,29.125,FALSE
AuO2F,P222_1,1.3326,3.8361,6.9661,22.082,FALSE
BeI2,P-3m1,2.377,3.8361,3.8361,22.742,TRUE
Sr2CoClO3,P4/nmm,0,3.8362,3.8362,32.583,TRUE
WI5,Pmma,0,3.8364,19.348,23.526,FALSE
Sn2O5,Pnc2,0,3.8366,6.6204,24.876,FALSE
Sr2N,P-3m1,0,3.8369,3.8369,22.747,TRUE
N2O3,Pc,0.7532,3.8378,4.8101,23.935,FALSE
YbCuPbSe3,Pmma,0,3.838,10.638,26.728,FALSE
Ba2Ir,P4/mmm,0,3.8384,3.8384,24.733,TRUE
SnS,Pbcm,0.6608,3.839,12.229,22.971,FALSE
CdBiS2Cl,Pmc2_1,1.1815,3.839,11.478,25.697,FALSE
MgBr2,Pmma,3.4674,3.839,6.5815,23.548,FALSE
BaClO3,P4/nmm,0,3.8394,3.8394,28.33,TRUE
BF,P4mm,2.8942,3.8396,3.8396,22.485,TRUE
MgCr2O5,Pmmn,0,3.8398,11.33,24.227,FALSE
Ca3Cu2(ClO2)2,P4/mmm,0,3.8401,3.8401,28.734,TRUE
Ba2Co3O8,P4/mmm,0,3.8401,3.8401,28.441,TRUE
SmPb2,P4/mmm,0,3.8413,3.8413,22.592,TRUE
Ca2FeClO3,P4/nmm,0.8457,3.8417,3.8417,31.693,TRUE
Ta2O5,P2_1/m,3.6686,3.842,10.842,24.974,FALSE
Tl2SnS3,Pmma,1.3332,3.8422,7.3901,30.077,FALSE
CuCl,Cmme,2.6015,3.8426,3.8426,23.904,TRUE
ScSe3,P4/nmm,0,3.8427,3.8427,29.216,TRUE
YBrO,P4/nmm,4.6172,3.8429,3.8429,25.642,TRUE
NiAs,P-6m2,0,3.8434,3.8449,"20.0,""",FALSE
TaSe,P4/nmm,0,3.8438,3.8438,23.448,TRUE
TcSe,P4/nmm,0,3.8439,3.8439,23.119,TRUE
NaSnO,P4/nmm,0,3.8441,3.8441,27.97,TRUE
PF3,P-6m2,1.7746,3.8447,3.8447,24.623,TRUE
PbS2,P-3m1,0.6893,3.8449,3.8449,23.192,TRUE
YBrO,P-3m1,4.3099,3.8449,3.8449,26.738,TRUE
TiZn(BiO3)2,Cm,0,3.8458,3.8458,28.528,TRUE
U2S5,P2/m,0,3.8463,5.3416,33.935,FALSE
Nb2O5,P2_1/m,2.4963,3.8463,6.7138,27.122,FALSE
SiTe,P3m1,1.748,3.8464,3.8464,21.529,TRUE
RhS,P4/nmm,0,3.8465,3.8465,22.797,TRUE
VPbO3,P4mm,0,3.8465,3.8465,23.416,TRUE
Ca(HO)2,P3m1,3.9134,3.8465,3.8465,22.885,TRUE
GaBr3,Pm,2.3307,3.8466,10.564,23.069,FALSE
ZnBr2,P-4m2,3.3797,3.8475,3.8434,22.755,FALSE
MnBr2,P-3m1,1.5185,3.8476,3.8476,23.107,TRUE
W(BrO)2,Pmc2_1,0.8547,3.849,7.6935,24.966,FALSE
YbCl3,Pmmn,0,3.8496,7.9619,23.788,FALSE
TaAsO4,Pmc2_1,1.6195,3.8496,5.8893,29.385,FALSE
Ba2Rh,P4/mmm,0,3.8502,3.8502,22.883,TRUE
UTeN,P4/nmm,0,3.8505,3.8505,25.741,TRUE
YBr2,P-6m2,0.3369,3.8505,3.8505,23.825,TRUE
CdPb2(ClO)2,C2/m,3.7001,3.8508,6.4367,23.908,FALSE
MgBr2,P-3m1,4.851,3.851,3.851,23.016,TRUE
CuWO3F2,Pmma,0,3.8519,9.1136,28.63,FALSE
PdBr2,P-3m1,0.1044,3.8525,3.8525,23.007,TRUE
Zr2Te2P,P-3m1,0,3.8526,3.8526,26.662,TRUE
WBr5,Pmma,0.0018,3.8526,9.4951,23.526,FALSE
Sr2Zn,P4/mmm,0,3.8527,3.8527,23.983,TRUE
Gd2Cl3,C2/m,0,3.8533,9.6524,26.045,FALSE
Y7C3I6O,Pmma,0,3.8533,22.486,28.434,FALSE
US3,P4/nmm,0,3.8535,3.8496,28.821,FALSE
HfTeSe4,P2/m,1.1005,3.8537,6.8381,23.212,FALSE
ZrTiTe4,P2/m,0,3.8539,6.7468,23.632,FALSE
Be2P,P-4m2,0,3.8542,3.8545,22.957,TRUE
Te2Ir,P-3m1,0,3.8543,3.8543,22.733,TRUE
KNb3O8,Pmmn,2.4264,3.8544,9.0966,30.152,FALSE
AgI2,P-4m2,0,3.8545,3.8545,23.53,TRUE
BaH4O3,Pmc2_1,4.1383,3.8553,6.6555,26.21,FALSE
BCl,P4mm,1.8124,3.8556,3.8556,22.485,TRUE
TbGe2,P4/mmm,0,3.8558,3.8558,22.621,TRUE
Ca2Cu(BrO)2,P4/mmm,0,3.8559,3.8559,26.029,TRUE
NaSr,P2_1/m,0,3.8569,3.7723,26.122,FALSE
Te2Os,P-3m1,0,3.857,3.857,22.67,TRUE
LaF,P-3m1,0,3.8571,3.8571,26.27,TRUE
ReSe,P4/nmm,0,3.8571,3.8571,23.119,TRUE
Al2Se3,P1,0,3.8571,6.8326,29.436,FALSE
Ba2Tl2W3O10,P2,0,3.8571,3.8834,36.814,FALSE
US5,P2_1,0.0074,3.8577,8.6458,29.452,FALSE
Ga2Se3,P1,0,3.8583,6.7877,29.441,FALSE
Ca3Cu2(BrO2)2,P4/mmm,0,3.8583,3.8583,29.19,TRUE
SmSi3Ni,Pmma,0,3.8595,3.8677,28.244,FALSE
CuBr2,P2_1/c,0,3.8599,6.3363,21.525,FALSE
Sb2S3,P2_1/m,1.2273,3.8607,11.073,24.834,FALSE
AuBr2,P-4m2,0,3.861,3.861,23.53,TRUE
CdCl2,P-3m1,3.9477,3.861,3.861,22.865,TRUE
CaMnSi,P4/nmm,0,3.8612,3.8612,25.476,TRUE
NdSn2,P4/mmm,0,3.8613,3.8613,22.598,TRUE
La5F8,P2/m,0,3.8613,13.514,25.194,FALSE
W(ClO)2,Pmc2_1,1.6973,3.8613,7.7021,24.642,FALSE
NbSe,P4/nmm,0,3.8616,3.8616,23.448,TRUE
GeF3,P1,3.5279,3.8619,6.3813,24.055,FALSE
Ba2Cr3O8,P4/mmm,0,3.8625,3.8625,28.199,TRUE
PtS,P4/nmm,0,3.8627,3.8627,22.999,TRUE
Ga2Se5,P1,1.6451,3.8628,7.7671,24.09,FALSE
NiTe,P-3m1,0,3.8629,3.8629,23.678,TRUE
Nb2O5,Pmmn,3.1838,3.863,12.387,24.228,FALSE
AuBrO2,P222_1,0.9755,3.8632,7.5004,23.034,FALSE
Bi2C,Pmc2_1,0,3.864,10.566,25.607,FALSE
MgV2O5,Pmmn,2.8817,3.8642,11.238,24.314,FALSE
TmIO,P4/nmm,3.4339,3.8642,3.8642,25.978,TRUE
TlW2(Cl3O)2,P2/m,0,3.8646,11.107,23.468,FALSE
W(OF)2,Amm2,1.7269,3.8649,3.8649,23.767,TRUE
TbSi2,P4/mmm,0,3.8654,3.8654,22.621,TRUE
PdCl2,Pmna,0.9214,3.8655,6.4993,22.605,FALSE
NaW2(Br3O)2,P2/m,0,3.8656,11.125,23.697,FALSE
PbS,Pmm2,0.9398,3.8656,11.298,25.046,FALSE
MoI5,P2/c,0,3.8662,19.389,23.524,FALSE
Ta6O13,Cmmm,0,3.8663,12.653,28.18,FALSE
SnSe2,P-3m1,0.7975,3.8663,3.8664,23.192,TRUE
RbF,P4/mmm,4.6163,3.8669,3.8669,"20.0,""",TRUE
ZnNi2O5,Pmmn,0,3.867,10.685,23.487,FALSE
CrTe4Au,P2/m,0,3.8676,6.5494,23.273,FALSE
Nd2S5,P4/nmm,0,3.8681,3.868,38.68,TRUE
BaTiO3,Pmm2,0.7896,3.8681,6.4289,22.79,FALSE
UTeO,P4/nmm,0,3.8688,3.8688,25.634,TRUE
NdI2,P4/mmm,0,3.8689,3.8689,23.775,TRUE
Ba2Mn3O8,P4/mmm,0,3.8691,3.8698,28.217,TRUE
MgCl2,P-4m2,5.3366,3.8692,3.8692,22.656,TRUE
Sr3Co2Cl2O5,P4/mmm,0,3.8699,3.8699,29.982,TRUE
Nb2O5,P2_1/m,3.0807,3.8699,10.147,24.978,FALSE
Sc2I3,C2/m,0.5305,3.8707,11.257,26.11,FALSE
ScIO,P2_1/m,2.0127,3.8712,7.2283,26.363,FALSE
Na2Cl,P-3m1,0,3.8714,3.8714,23.729,TRUE
AuF,P4/nmm,0,3.8715,3.8715,23.624,TRUE
BaTl(SnO3)2,Pmmn,0,3.8715,3.9022,60.406,FALSE
InSb2S4Cl,P2_1/m,1.4623,3.8716,17.817,23.486,FALSE
SnSe,Pmmn,1.588,3.8717,6.1401,21.993,FALSE
LiV(OF)2,P1,3.3033,3.8717,6.7775,22.025,FALSE
NaFeAs,P4/nmm,0,3.8724,3.8724,24.818,TRUE
Sb2O3,P1,1.3295,3.8725,3.281,38.345,FALSE
Si3H,P-3m1,0.9227,3.8731,3.8731,30.201,TRUE
Tm(CuS)2,P-3m1,0,3.8737,3.8717,24.201,FALSE
Ti(FeSe2)2,P-1,0,3.8739,6.0598,23.232,FALSE
Nb6O13,Pmma,0,3.8743,12.87,28.18,FALSE
SnF2,P-3m1,2.4311,3.8744,3.8744,23.732,TRUE
GdBrO,P4/nmm,2.9656,3.8744,3.8744,25.655,TRUE
W(OF)2,Pmc2_1,1.6177,3.8754,7.7049,23.759,FALSE
CuCl,P3m1,1.3107,3.8755,3.8755,20.195,TRUE
In4S3,Pmn2_1,1.3835,3.8755,11.912,30.194,FALSE
Si,P-3m1,0.0003,3.8759,3.8754,20.688,TRUE
CuBiS2,Pmc2_1,0.2448,3.8759,6.174,25.435,FALSE
IrS,P4/nmm,0,3.8763,3.8763,22.797,TRUE
Si3Rh,P-6m2,0,3.8765,3.8765,24.981,TRUE
SiTe,Pbcm,0,3.8769,9.1725,22.971,FALSE
Nd3O2F5,Pm,3.2245,3.8773,5.9225,28.943,FALSE
NbS,P4/nmm,0,3.8774,3.8774,23.448,TRUE
GeTe2,P-3m1,0,3.8782,3.8782,25.052,TRUE
CuTe,P2/m,0,3.8783,3.9027,23.046,FALSE
Ho(CuS)2,P-3m1,0,3.8783,3.8783,24.29,TRUE
Ca3Fe2Cl2O5,P4/mmm,0.7415,3.8789,3.8789,29.497,TRUE
AgSe,P-1,0,3.879,6.1981,25.307,FALSE
NiSb2,P2_1/m,0,3.8793,5.2532,24.523,FALSE
AgBiSCl2,Pmma,0.7597,3.8794,9.6755,25.921,FALSE
Tb(CuS)2,P-3m1,0,3.8798,3.8798,24.186,TRUE
Ba2V3O8,P4/mmm,0,3.88,3.88,28.358,TRUE
ZnS,P3m1,2.5839,3.8804,3.8804,20.166,TRUE
GePt,Pmmn,0,3.8811,2.9418,20.085,FALSE
Sr4Mn3(ClO4)2,P4/mmm,0,3.8813,3.8813,34.105,TRUE
TiO2,P2_1/m,1.7364,3.8813,6.1698,28.944,FALSE
PuCl3,Pmmn,0,3.8819,8.5666,24.89,FALSE
CaCoSi,P4/nmm,0,3.8819,3.8819,24.576,TRUE
GeCl2,P-3m1,2.7636,3.8819,3.8819,23.732,TRUE
PtF2,Pmna,1.1906,3.8822,5.6113,22.605,FALSE
InS,P-1,1.6663,3.8827,12.063,25.607,FALSE
V3(HO2)4,Cm,1.4355,3.8828,8.7314,26.795,FALSE
PPt,P-6m2,0,3.8831,3.8838,20,TRUE
La2F3,C2/m,0.5447,3.8835,9.1347,25.526,FALSE
Y2Br3,C2/m,0.7032,3.8835,9.9181,25.497,FALSE
SrH4O3,P1,3.7967,3.8844,6.9332,25.404,FALSE
CuI2,P-4m2,0,3.8845,3.8845,23.53,TRUE
HoSe,P4mm,0,3.8847,3.8847,20.412,TRUE
BiClO,P4/nmm,2.7401,3.885,3.885,25.299,TRUE
SrF2,P-3m1,6.6551,3.8853,3.8852,23.529,TRUE
LaWClO4,Pmn2_1,2.627,3.8863,6.2131,30.027,FALSE
Dy(CuS)2,P-3m1,0,3.8873,3.8872,24.315,TRUE
Sr2MnClO3,P4/nmm,0,3.8878,3.8878,32.505,TRUE
BaN,Pmm2,0,3.8881,3.8819,27.111,FALSE
Sb2S3,P2_1/m,1.0014,3.8883,9.7659,26.233,FALSE
LiFe3(OF3)2,Pmn2_1,1.2582,3.8885,8.7557,31.216,FALSE
AuCl,Pmma,0,3.8886,3.5754,23.042,FALSE
Y(CuS)2,P-3m1,0,3.8888,3.8888,24.382,TRUE
Zn3(InS3)2,P3m1,0,3.8889,3.8889,35.909,TRUE
As2O3,P1,0.1915,3.8889,2.9147,38.459,FALSE
BaH4O3,Pmc2_1,3.7203,3.8889,5.6851,26.505,FALSE
InSb2S4Br,P2_1/m,1.4894,3.889,17.798,24.225,FALSE
Ba2Fe3O8,P4/mmm,0,3.8894,3.8894,28.408,TRUE
InSbS3,P2_1/m,1.807,3.8898,9.0043,25.425,FALSE
Sc7I10,P-1,0,3.8899,17.072,26.84,FALSE
BeCu,P6/mmm,0,3.8901,3.8901,24.159,TRUE
Ba2TlBi2O7,P4/mmm,0,3.8904,3.891,31.554,FALSE
DyZnPO,P-3m1,1.5089,3.8905,3.8905,28.327,TRUE
TeMo,P4/nmm,0,3.8908,3.8908,23.354,TRUE
CoBiO3,P4mm,0,3.891,3.891,23.36,TRUE
CdInGaS4,P3m1,0.4962,3.8914,3.8914,29.63,TRUE
BaTl(WO3)2,P1,0,3.8916,3.8857,28.336,FALSE
CuBiSCl2,Pmma,0.2631,3.8921,8.637,25.271,FALSE
CaF2,P-4m2,6.4838,3.8926,3.8926,22.656,TRUE
LaSe3,P4mm,0,3.8934,3.8915,24.447,FALSE
PbCN2,P2_1/m,2.0599,3.8936,5.5224,22.93,FALSE
HoIO,P-3m1,2.4528,3.8939,3.8939,27.139,TRUE
KCa,P2_1/m,0,3.8942,3.7557,25.928,FALSE
LiV(OF)2,P2_1/m,2.9701,3.8943,6.7004,23.152,FALSE
TiPbO3,P4mm,2.4812,3.8948,3.8948,23.818,TRUE
AsBr5,Pmma,0,3.8955,15.754,23.858,FALSE
BiF5,Pmmm,0,3.8956,4.7178,24.013,FALSE
VF4,P4/mmm,1.9863,3.896,3.896,23.812,TRUE
SiH,P-3m1,2.1852,3.896,3.896,23.8,TRUE
CuBr,P-3m1,1.6474,3.8967,3.8967,23.814,TRUE
AgO2F,P2_1/m,0,3.8971,4.5909,25.459,FALSE
Ba2Tl2Sn3O10,P1,0,3.8974,3.814,61.361,FALSE
SmCl3,Pmmn,3.7302,3.8978,8.584,24.348,FALSE
TaI2O,Pmmm,0.9412,3.898,7.4823,24.722,FALSE
GaCl,P4mm,1.7293,3.898,3.898,22.485,TRUE
YZnPO,P-3m1,1.5894,3.8982,3.8982,28.361,TRUE
Ba2N,Pmmn,0,3.8983,5.8194,24.712,FALSE
BaTl(MoO3)2,Pm,0,3.8983,3.9074,38.711,FALSE
PtSe,P4/nmm,0,3.8992,3.8991,22.999,TRUE
TeW,P4/nmm,0,3.8992,3.8992,23.354,TRUE
EuBrO,P4/nmm,0,3.8995,3.8995,25.661,TRUE
PbS2,P-4m2,0.6849,3.8995,3.8995,22.855,TRUE
MgSb2O5,Amm2,0,3.8996,5.5162,23.845,FALSE
RuS,P4/nmm,0,3.8997,3.8997,22.779,TRUE
Zn2In2S5,P3m1,0,3.9002,3.9002,32.613,TRUE
PPd,P-6m2,0,3.9004,3.9025,"20.0,""",FALSE
SrBi5O9,Pm,0,3.9004,7.0121,27.444,FALSE
Mg2Al2Se5,P-3m1,1.2615,3.9006,3.9006,32.8,TRUE
CdBiS2Br,P2/m,0.8492,3.9007,11.195,25.746,FALSE
SnSe,P3m1,2.2056,3.9008,3.9007,21.529,TRUE
BaF2,Pmma,4.5632,3.9008,7.3564,23.548,FALSE
Zn2In2S5,P3m1,0,3.901,3.901,32.643,TRUE
InS,P-6m2,1.7508,3.9014,3.9014,25.019,TRUE
Zn(InS2)2,P2/m,1.8671,3.9031,6.7379,29.494,FALSE
TaAlO4,P2/m,3.135,3.9031,6.2208,26.123,FALSE
In4Bi2S9,P2_1/m,0.6782,3.9037,20.62,30.033,FALSE
Ni2SbTe2,P-6m2,0,3.9041,3.9041,25.062,TRUE
BaH2O3,Pmc2_1,3.0461,3.9042,6.2709,25.795,FALSE
Na2Cl,Pmma,0,3.9051,7.1357,23.993,FALSE
Ba2Ni3O8,P4/mmm,0,3.9051,3.9068,28.32,FALSE
CaMnGe,P4/nmm,0,3.9052,3.9052,24.74,TRUE
CeS2,R3m,0.1081,3.9052,3.9058,23.422,TRUE
Mg(AlSe2)2,P-3m1,1.2177,3.9053,3.9053,29.627,TRUE
SeI,C2/m,0.649,3.9055,9.1829,25.891,FALSE
BeI2,P-4m2,3.0251,3.9063,3.9063,22.656,TRUE
DyBr3,Pmmn,2.917,3.9064,9.0896,23.944,FALSE
PtBr2,P-3m1,0.1628,3.9065,3.9065,23.007,TRUE
UIN,P4/nmm,0,3.9069,3.9069,26.225,TRUE
GaSe,P3m1,0.1026,3.9071,3.9071,21.25,TRUE
HoIO,P4/nmm,3.5927,3.9071,3.9071,26.042,TRUE
ZnCr2O5,Pmmn,0.1648,3.9072,10.748,27.021,FALSE
Te3P2,P2_1/m,0.1752,3.9075,10.02,24.858,FALSE
Te3P2,P2_1/m,0.0876,3.9079,9.9144,26.242,FALSE
InS,P-3m1,1.6879,3.9079,3.9079,24.623,TRUE
MnSbSe2Br,P2/m,0,3.9091,9.7438,37.539,FALSE
SiBi2O5,Pmc2_1,2.2089,3.9092,10.845,25.551,FALSE
Sc5I8,P2/m,0,3.9099,14.578,25.193,FALSE
AgF,P-6m2,1.3263,3.91,3.91,"20.0,""",TRUE
Zn(InS2)2,P3m1,0,3.9103,3.9103,29.537,TRUE
US3,Pmmn,0,3.9105,5.4002,25.925,FALSE
TiF4,P4/mmm,3.0386,3.9107,3.9107,23.891,TRUE
Y7Br10,P-1,0,3.9108,17.441,26.841,FALSE
YCI,C2/m,0,3.9111,4.1434,26.982,FALSE
PdSe2,P-6m2,0,3.9112,3.9169,22.193,FALSE
LaNb2O7,P4/mmm,0,3.9117,3.9117,28.071,TRUE
Be2As,P-4m2,0,3.9121,3.9137,22.957,FALSE
GaF,P4mm,2.2383,3.9121,3.9121,22.485,TRUE
Y5Br8,P2/m,0,3.9122,14.904,25.193,FALSE
NdTeBrO3,P4/nmm,0.5289,3.9123,3.9123,64.813,TRUE
Zn(InS2)2,P3m1,0,3.9126,3.9126,29.548,TRUE
Zn(InS2)2,P3m1,0,3.9127,3.9127,29.538,TRUE
Pr4C2Cl5,Pmmm,0,3.9129,7.8491,25.972,FALSE
BiB,P-6m2,0,3.9133,3.9133,"20.0,""",TRUE
CaFeSO,P3m1,0,3.9137,3.9137,23.679,TRUE
MgCuO2,P-4m2,0,3.9137,3.9137,20.35,TRUE
InF,P4mm,1.1425,3.9139,3.9139,22.485,TRUE
Tb5Br8,P2/m,0,3.9145,13.862,26.177,FALSE
PbS,P3m1,2.2287,3.9146,3.9146,21.598,TRUE
NpCl3,Pmmn,0,3.9152,8.6083,24.494,FALSE
AuF,P-6m2,0.0998,3.9157,3.9157,20.195,TRUE
Si,P6/mmm,0.0001,3.916,3.9159,23.996,FALSE
LiFeF4,P2/m,3.1727,3.9161,12.884,29.091,FALSE
CaSb2O5,Amm2,0,3.9164,5.9592,23.879,FALSE
AsF3,P-6m2,2.0091,3.9164,3.9164,24.623,TRUE
BaNa,P2_1/m,0,3.9174,3.7931,25.875,FALSE
GeSe,Pmn2_1,1.2541,3.9187,4.4531,22.785,FALSE
BaTl(SnO3)2,P4mm,0,3.9189,3.9331,30.575,FALSE
CaCl2,Pmma,3.4639,3.92,7.093,23.548,FALSE
SeN,P4/nmm,0,3.9201,3.9201,21.297,TRUE
GeTe,Pmmn,1.1057,3.9203,6.1895,22.225,FALSE
Sb2S3,P-3m1,0.7101,3.9204,3.9204,27.04,TRUE
Si3Ir,P-6m2,0,3.9208,3.9208,24.981,TRUE
GaSe,P-6m2,0.7553,3.9211,3.9211,25.282,TRUE
Sr2Hg,P4/mmm,0,3.9215,3.9215,23.983,TRUE
SmS,P4/nmm,0,3.9217,3.9217,23.293,TRUE
GaP,P-6m2,1.1919,3.9217,3.9217,"20.0,""",TRUE
YBr3,Pmmn,2.8143,3.9217,9.0948,24.855,FALSE
Al3Co,P-6m2,0,3.9219,3.9219,25.13,TRUE
YIO,P-3m1,2.5913,3.9221,3.9221,27.209,TRUE
RhSe,P4/nmm,0,3.9222,3.9222,22.797,TRUE
PbS,Pmn2_1,2.0793,3.9222,5.9546,22.166,FALSE
HgCl2,P-3m1,2.5222,3.923,3.923,22.956,TRUE
MnSbSe2I,P2/m,0.0738,3.9231,10.529,25.584,FALSE
Mo(BrO)2,Pmc2_1,1.1625,3.9239,7.7364,24.865,FALSE
OsS,P4/nmm,0,3.924,3.924,22.779,TRUE
CeSi2,P4/mmm,0,3.9249,3.9249,22.585,TRUE
TaTe,P4/nmm,0,3.9252,3.9252,23.448,TRUE
GdZnPO,P-3m1,0.6409,3.9256,3.9256,28.402,TRUE
NbCl2O,Pmm2,0.8247,3.9259,6.7356,23.913,FALSE
TeF,C2/m,1.1561,3.9259,7.6666,25.912,FALSE
CaBi2O5,Pmm2,0,3.9264,5.2275,24.598,FALSE
Rb2Bi3F11,P1,0,3.9266,4.3772,36.447,FALSE
LuSBr,Pmmn,2.96,3.9272,5.2356,26.102,FALSE
NiI2,P-3m1,0.1422,3.9274,3.9274,23.007,TRUE
Y6C2I7,C2/m,0,3.9277,10.917,29.295,FALSE
SbP,P1,0.5421,3.9278,4.3961,22.479,FALSE
ScTe,P4/nmm,0,3.9281,3.9281,23.289,TRUE