Formula,Space Group,Band Gap,a,b,c,a=b
BaCa,P3m1,0,4.1039,4.1039,34.509,TRUE
GaAs,P-6m2,0,4.1043,4.1043,"20.0,""",TRUE
CuBr,P-6m2,1.0676,4.1052,4.1052,"20.0,""",TRUE
La2Si,P-3m1,0,4.1053,4.1053,22.695,TRUE
Bi7(S3Cl)3,Pm,0.4607,4.1058,11.001,33.604,FALSE
TeRu,P4/nmm,0,4.108,4.108,22.779,TRUE
Tl2Se3,P-3m1,0,4.1085,4.1085,26.98,TRUE
PbCl2,P-6m2,3.4304,4.1085,4.1085,23.838,TRUE
LaHBr2,P-6m2,3.7233,4.1089,4.1089,23.988,TRUE
La2Cl3,C2/m,0.2873,4.1092,10.162,25.499,FALSE
ErFeGe2,P4/nmm,0,4.1098,4.109,26.798,TRUE
PrIO,P4/nmm,3.7956,4.1102,4.1102,26.208,TRUE
TaF4,P4/mmm,0,4.1123,4.1123,23.812,TRUE
Sb,P-3m1,1.2203,4.1125,4.1125,21.522,TRUE
GaGeTe,P-3m1,0.7689,4.1131,4.1131,28.289,TRUE
GaTe,C2/m,0.9947,4.1135,5.4442,23.425,FALSE
AgF2,P-4m2,0,4.1142,4.1142,23.53,TRUE
AlTe,P-6m2,1.7839,4.1147,4.1147,24.817,TRUE
YCoGe2,P4/nmm,0,4.1149,4.1125,26.689,FALSE
BaMg,P-3m1,0,4.1149,4.1149,28.784,TRUE
CaBi2O5,Amm2,0,4.1151,6.0765,24.113,FALSE
HgBr2,C2/m,2.5943,4.1153,4.1153,23.291,TRUE
TbCoGe2,P4/nmm,0,4.1156,4.1131,26.757,FALSE
GeSb,P-1,1.209,4.1159,11.964,24.958,FALSE
ZrAl5Ni2,P4/mmm,0,4.1167,4.1167,26.987,TRUE
AlTe,P-1,1.8858,4.1168,12.107,25.592,FALSE
ZrSn2,P4/nmm,0,4.1169,4.1205,25.781,FALSE
AgAuCl4,P2/c,0.8121,4.1173,13.152,22.925,FALSE
HoFeGe2,P4/nmm,0,4.1176,4.1224,26.802,FALSE
AgCSN,Pmn2_1,2.7262,4.1181,11.371,22.992,FALSE
Tb5I8,P2/m,0,4.1187,14.718,26.182,FALSE
NdPb8F19,Cm,3.5512,4.1187,4.1214,69.229,FALSE
ThIN,P4/nmm,2.6652,4.1195,4.1195,26.296,TRUE
GaTe,P-6m2,1.4595,4.1202,4.1202,25.019,TRUE
Mg2As,P-3m1,0,4.1203,4.1203,23.013,TRUE
GaTe,C2/m,1.8617,4.121,12.073,25.457,FALSE
AuI,Pmma,0,4.1215,3.9913,23.042,FALSE
SrCl2,C2/m,4.3672,4.1224,8.1201,24.49,FALSE
GeSb,C2/m,1.357,4.1226,11.925,24.982,FALSE
AuCClO,Pmmn,2.5046,4.1227,5.091,26.584,FALSE
Ga4Te3,Pmn2_1,0.9213,4.123,11.233,30.194,FALSE
HfAl5Ni2,P4/mmm,0,4.1237,4.1237,26.98,TRUE
MnI2,P-3m1,1.1068,4.1239,4.1239,23.32,TRUE
LaI,P-3m1,0,4.1245,4.1245,27.09,TRUE
Pr2Br5,P2_1/m,0.3496,4.1253,15.702,25.269,FALSE
PuF3,P-6m2,0,4.126,4.126,24.728,TRUE
AlTe,P-3m1,2.0391,4.1272,4.1272,24.623,TRUE
Al3Ir,P-6m2,0,4.1273,4.1273,25.13,TRUE
ThSn2,P4/mmm,0,4.128,4.128,22.685,TRUE
SnTe2,P-3m1,0,4.1281,4.1281,22.955,TRUE
NdPb6F15,Cm,4.0907,4.1281,4.1281,62.422,TRUE
BiBr5,Pmma,0,4.1287,15.993,23.858,FALSE
GaTeCl,Pmn2_1,2.2964,4.129,5.8463,25.296,FALSE
Na(SnAs)2,P-3m1,0,4.1293,4.1293,26.883,TRUE
TbSn5,Pmmm,0,4.1293,6.6959,23.326,FALSE
In2Se3,P1,0.2952,4.1293,7.1342,29.448,FALSE
Sb5O7F,P-1,3.0669,4.13,12.778,26.416,FALSE
KRbMg6O7,P4mm,0,4.1309,4.1309,30.383,TRUE
BaZnF4,Pmn2_1,4.4744,4.1314,5.9143,26.526,FALSE
LiMnSe2,P3m1,0,4.1315,4.1315,24.406,TRUE
Be2Sb,Pmmn,0,4.1323,3.9837,23.959,FALSE
DyI3,Pmmn,1.8298,4.1323,10.003,23.944,FALSE
SmSn5,Pmmm,0,4.1326,6.8862,23.377,FALSE
ZrPb2,Pmmn,0,4.1328,4.3696,25.781,FALSE
SbF3,P-6m2,1.5274,4.1334,4.1334,24.623,TRUE
Hg(BiS2)2,C2/m,2.1032,4.1336,7.442,24.208,FALSE
LaBiSe2O,P4/nmm,0.8392,4.1342,4.1342,31.676,TRUE
Ba2N,P-4m2,0,4.1354,4.1369,22.957,FALSE
Ge(Te2As)2,P-3m1,0.6518,4.1355,4.1355,30.398,TRUE
PrAl3Cu,P4mm,0,4.1357,4.1357,23.662,TRUE
SrTcN3,P222_1,0,4.1361,5.6708,29.373,FALSE
NCl3,Pmn2_1,2.2398,4.1363,10.407,23.123,FALSE
HfF4,P4/mmm,4.9926,4.1378,4.1378,23.891,TRUE
LiAuF4,P2/c,2.3607,4.1385,10.417,21.875,FALSE
KBi2F7,P1,0.23,4.139,4.1279,29.181,FALSE
Ga2Te3,Cm,0,4.1391,7.2881,29.365,FALSE
Pb2O5,Pc,0.1821,4.1394,7.0563,24.876,FALSE
La5Cl8,P2/m,0,4.1396,15.259,25.194,FALSE
BaCa,P-3m1,0,4.1403,4.1403,28.784,TRUE
Ba2Hg,P4/mmm,0,4.1418,4.1418,23.727,TRUE
AgBr2,P2_1/c,0,4.1436,6.7833,21.552,FALSE
NiSb,P-6m2,0,4.1437,4.1465,20,FALSE
HfSn2,Pmmn,0,4.1442,4.0353,25.781,FALSE
Sb2TeSe2,P3m1,0.706,4.1442,4.1442,27.12,TRUE
HoSI,Pmmn,2.7458,4.1443,5.3107,26.676,FALSE
RbLiMg6O7,P4mm,0,4.1445,4.1445,28.579,TRUE
AlTe,P3m1,0.3997,4.145,4.145,21.25,TRUE
CaThBr6,Pmm2,1.9821,4.1452,9.1586,24.345,FALSE
AuBr2,P2_1/c,0,4.1453,7.0661,21.741,FALSE
AlTe,P-6m2,0.3239,4.1453,4.1453,28.153,TRUE
CuI,P-3m1,2.0219,4.1454,4.1454,23.805,TRUE
SnBr2,P-6m2,2.4058,4.146,4.146,23.838,TRUE
GeSb2,Pmc2_1,1.0369,4.1468,11.598,25.607,FALSE
TiPb2,P4/nmm,0,4.1477,4.1853,25.781,FALSE
SnF4,P4/mmm,3.9144,4.148,4.148,23.818,TRUE
CaCu,P6/mmm,0,4.1482,4.1482,24.159,TRUE
TePd,P-3m1,0,4.149,4.149,23.678,TRUE
YbCoGe2,P4/nmm,0,4.1497,4.1512,26.889,FALSE
CeSiI,P-3m1,0,4.1498,4.1498,28.195,TRUE
LaIO,P4/nmm,3.367,4.1501,4.1501,26.203,TRUE
Cu2S,Pmc2_1,0.6943,4.1504,5.3345,23.357,FALSE
SnF3,P1,2.4551,4.1509,6.7025,24.037,FALSE
InBi2Se4Br,P2_1/m,1.4498,4.1511,17.897,24.996,FALSE
Mn(InSe2)2,P3m1,0,4.1513,4.1513,29.809,TRUE
SnTe,Pmmn,1.2072,4.1515,6.5412,22.225,FALSE
TiSe,P4/nmm,0,4.1517,4.1517,22.865,TRUE
GaTe,P-3m1,1.3756,4.1517,4.1517,24.623,TRUE
Sm2(PPt2)3,P-4m2,0,4.1528,4.1528,29.428,TRUE
SbSe,C2/m,0,4.1529,4.1529,23.273,TRUE
LaIO3,P2_1/m,0.7019,4.1533,4.3158,26.999,FALSE
RbMg,Pmmn,0,4.1543,3.8966,25.791,FALSE
CdS,P3m1,0,4.1552,4.1552,56.585,TRUE
Li4CO4,C2,3.3461,4.1553,5.09,22.971,FALSE
ZnI2,P-4m2,2.646,4.1569,4.1557,22.753,FALSE
YI3,Pmmn,1.8298,4.157,9.9305,24.855,FALSE
Sb2TeSe2,P-3m1,0.7533,4.1572,4.1572,27.164,TRUE
Ba5Ce,Cm,0,4.1573,8.0391,25.533,FALSE
GaI3,P2/m,1.3872,4.1579,8.4567,22.86,FALSE
TeAu,P4/nmm,0,4.1584,4.1584,23.081,TRUE
NbF4,P4/mmm,0,4.1589,4.1589,23.812,TRUE
TbI3,Pmmn,1.9985,4.1592,9.9909,23.98,FALSE
BiSe,P4/nmm,0,4.1594,4.1594,23.973,TRUE
Y2I5,P2_1/m,0.1501,4.1602,16.603,26.5,FALSE
Sr5Sc,P1,0,4.1608,7.4361,25.336,FALSE
CaSi3Ir,P4mm,0,4.1614,4.1614,23.491,TRUE
Sr2Ce,C2/m,0,4.1614,7.1378,26.048,FALSE
BaBe,P3m1,0,4.1622,4.1622,34.509,TRUE
ThPb2,P4/mmm,0,4.1624,4.1624,22.685,TRUE
SnTe,P3m1,1.8116,4.1626,4.1626,22.359,TRUE
Al2Te3,Cm,0,4.1627,7.3431,29.446,FALSE
InBr,P4mm,1.2231,4.163,4.163,22.485,TRUE
Ge2Te5As2,P-3m1,0.5232,4.1631,4.1631,33.872,TRUE
Y2Sn,P-3m1,0,4.1636,4.1636,22.466,TRUE
MgTi,P4/nmm,0,4.164,4.102,24.731,FALSE
UI3,Pmmn,0.0341,4.1643,9.9662,24.951,FALSE
Ga3Ir,P-6m2,0,4.1648,4.1648,25.13,TRUE
Ga3Rh,P-6m2,0,4.1651,4.165,25.13,TRUE
Bi2Se3,P2_1/m,1.1149,4.1655,10.379,26.235,FALSE
LaAl3Cu,P4mm,0,4.1657,4.1657,23.683,TRUE
SrCl2,Pmma,3.6311,4.1658,7.6772,23.548,FALSE
BBr3,P1,3.4706,4.166,7.9336,23.016,FALSE
Ba5La,P1,0,4.1665,7.9735,25.309,FALSE
La2Br3,C2/m,0.2128,4.1665,10.535,25.5,FALSE
TlSe,P-1,0.8212,4.1666,12.717,25.594,FALSE
Sr(SnAs)2,P-3m1,0.9359,4.1666,4.1666,27.237,TRUE
InSe,P3m1,0.1834,4.1677,4.1677,21.25,TRUE
YTe,P4/nmm,0,4.1678,4.1678,23.289,TRUE
SiBi,C2/m,1.185,4.168,12.017,24.727,FALSE
TePd,P4/nmm,0,4.1692,4.1692,22.999,TRUE
InSe,P-6m2,0.6435,4.1692,4.1691,25.685,TRUE
DySI,Pmmn,2.7782,4.171,5.313,26.692,FALSE
Bi2Se3,P2_1/m,1.2774,4.1715,10.228,25.313,FALSE
ScTe3,P4mm,0,4.1721,4.1684,24.447,FALSE
CoSn3,P-6m2,0,4.1724,4.1724,24.981,TRUE
SiBi,P-1,1.022,4.1727,12.012,25.228,FALSE
U2Te5,Pmmm,0,4.1729,6.1497,33.881,FALSE
MgI2,Pmma,2.6502,4.1731,7.0607,23.548,FALSE
Bi2Se3,Pc,0.8679,4.1732,13.826,22.708,FALSE
Na2Br,Pmma,0,4.1733,7.3126,23.993,FALSE
CaInBr3,Pmma,2.8152,4.174,11.385,26.435,FALSE
KBa,P2_1/m,0,4.1741,4.0462,26.069,FALSE
RbBe,P2_1/m,0,4.1745,3.4468,25.965,FALSE
Yb(AlGe)2,P-3m1,0.1767,4.1746,4.1746,25.237,TRUE
ErSeI,Pmmn,2.3193,4.1746,5.5706,26.649,FALSE
Cu2Se,P6/mmm,0,4.1747,4.1747,24.537,TRUE
Bi2Se3,P-3m1,0.8891,4.1751,4.1751,27.04,TRUE
MgI2,P-3m1,3.6569,4.1751,4.1751,23.347,TRUE
YbBi2,Pmm2,0.3294,4.1754,5.1621,23.047,FALSE
ZrO2,P2_1/m,1.0746,4.176,6.8433,28.953,FALSE
HgS,P3m1,0,4.1776,4.1776,56.585,TRUE
Sr2Cu2O3,Cmmm,0,4.1779,11.532,23.193,FALSE
Br,Pbam,1.3032,4.1779,8.7369,19.861,FALSE
AsSe,C2/m,0,4.1784,4.1784,23.288,TRUE
PbSe,Pbcm,1.1558,4.179,12.221,22.971,FALSE
Be2Bi,Pmmn,0,4.1793,4.1094,25.694,FALSE
YbBr2,P-3m1,5.1539,4.1798,4.1798,23.554,TRUE
Al2Te5,C2/m,1.4576,4.1808,8.3128,24.078,FALSE
Ba2Cd,P4/mmm,0,4.1813,4.1813,23.983,TRUE
Ge3(Te3As)2,P-3m1,0.502,4.1816,4.1816,37.355,TRUE
TlSe,P-6m2,0.6803,4.1824,4.1824,25.019,TRUE
HfMg6BO7,P4mm,0,4.1831,4.1831,28.93,TRUE
AuBr,Cmme,1.9037,4.1831,4.1831,23.904,TRUE
MgTi,P4/mmm,0,4.184,4.1853,26.045,FALSE
InF3,P2/m,4.5649,4.1841,6.5991,22.947,FALSE
Ba5Y,P1,0,4.1844,7.9497,25.344,FALSE
HoTe,P4mm,0,4.1845,4.1845,20.412,TRUE
Ca2P,P-3m1,0,4.1859,4.1859,23.013,TRUE
InPbCl3,Pmma,2.7867,4.186,11.313,26.914,FALSE
BiO2,P6/mmm,0.3539,4.1861,4.1861,23.731,TRUE
YGaI,P-3m1,0,4.1872,4.1872,28.076,TRUE
Ba2Ce,C2/m,0,4.1872,7.0152,26.048,FALSE
SrLaCl5,P2_1/m,3.8742,4.1874,15.106,23.315,FALSE
Y2Pb,P-3m1,0,4.1888,4.1888,22.466,TRUE
RbMnAs,P4/nmm,0,4.1889,4.1889,26.516,TRUE
TbGaI,P-3m1,0,4.1891,4.1891,28.072,TRUE
TlSe,C2/m,0.8989,4.1892,6.1419,23.419,FALSE
ZnNi2S5,P2_1/m,0,4.1898,12.896,21.102,FALSE
La2Br5,P2_1/m,0.4124,4.1912,15.796,25.461,FALSE
CaSnS3,Pmm2,0.2912,4.1928,7.2646,21.745,FALSE
CdS,P3m1,0,4.1929,4.1929,56.55,TRUE
SiI2,P-3m1,1.6557,4.1933,4.1933,23.732,TRUE
YGe3,Pmm2,0,4.1934,3.922,23.198,FALSE
PbIF,P4/nmm,2.3601,4.194,4.194,26.208,TRUE
HgS,P3m1,0,4.1942,4.1942,56.55,TRUE
I3N,P-6m2,0,4.1957,4.1957,24.623,TRUE
Ge4Te7As2,P-3m1,0.4222,4.1965,4.1965,60.798,TRUE
Tl2Se5,P1,0.5699,4.1974,8.0275,24.087,FALSE
Eu2ZnGe3,P-6m2,0,4.1984,4.2004,27.976,FALSE
LiP3,P-6m2,0,4.1985,4.1985,22.3,TRUE
Np(OF)2,P6/mmm,0,4.1987,4.1987,23.544,TRUE
Ga2Te5,P1,0.8572,4.1996,8.3182,24.099,FALSE
Rb2F,P-3m1,0,4.2004,4.2004,23.407,TRUE
TlSe,P-3m1,0.5774,4.2016,4.2016,24.623,TRUE
Ga2Te5,C2/m,1.1579,4.2023,8.3726,24.1,FALSE
PuI3,Pmmn,0,4.2031,9.9269,24.89,FALSE
UTe3,Pmmn,0,4.2036,6.1328,26.917,FALSE
B2S2O9,C2,7.0669,4.2047,4.426,27.246,FALSE
AsPb,P-1,0.4742,4.2054,12.667,24.949,FALSE
Be2Ge,Pmmn,0,4.2055,4.2111,28.824,FALSE
TeN,P4/nmm,0,4.2056,4.2056,21.297,TRUE
Tl4Se3,Pmn2_1,0.3304,4.2064,12.704,30.194,FALSE
Li2UO4,P4/mmm,0,4.2075,4.2075,27.283,TRUE
ZnAs,Amm2,0,4.2075,4.2075,20.274,TRUE
Ge5(Te4As)2,P-3m1,0.3228,4.2076,4.2076,64.274,TRUE
SBr,P-1,1.8022,4.2084,9.18,25.819,FALSE
PdS,P4/nmm,0,4.2096,4.2096,22.999,TRUE
CrI2,P2_1/c,0.0492,4.2098,7.0195,21.524,FALSE
Se3N2,Pmn2_1,1.4084,4.211,9.7486,22.708,FALSE
RbSr,P2_1/m,0,4.213,4.0753,26.146,FALSE
BaF2,P-3m1,6.3026,4.213,4.213,23.529,TRUE
BiAs,P1,0.5035,4.2136,4.5749,22.476,FALSE
WC3,P-6m2,0,4.2142,4.2142,"20.0,""",TRUE
Cr2S5,Pmmn,0.2951,4.2151,13.551,25.363,FALSE
Ca2P,Pmmn,0,4.2155,5.605,24.726,FALSE
HfPb2,P4/nmm,0,4.2162,4.2523,25.781,FALSE
GeS,Pmna,0.0672,4.2172,6.8984,24.071,FALSE
AgCl,P-3m1,1.8936,4.2175,4.2175,23.814,TRUE
TeI,C2/m,1.0441,4.2176,9.637,26.025,FALSE
RbHfMg6O7,P4mm,0,4.2181,4.2181,29.059,TRUE
Sb2O3,Pmn2_1,3.5316,4.2187,5.7356,23.935,FALSE
PbS,P4/nmm,1.7007,4.22,4.2252,22.911,FALSE
Bi2PbSe4,P-3m1,0.9501,4.2206,4.2206,30.765,TRUE
ZrF4,P4/mmm,4.3479,4.2206,4.2206,23.891,TRUE
GaTe,P3m1,0,4.221,4.221,21.25,TRUE
SrThBr6,Pmm2,1.9393,4.2211,9.2886,24.542,FALSE
U(OF)2,P-3m1,2.1731,4.2217,4.2217,23.556,TRUE
GdOF,P4/nmm,3.4894,4.2217,4.2217,24.1,TRUE
Mg2As,Pmmn,0,4.2228,4.6257,26.364,FALSE
UTe5,P2_1/m,0.0021,4.2233,10.276,29.403,FALSE
Y2GeI2,P-3m1,0.1576,4.2233,4.2233,27.166,TRUE
LaSe,P4/nmm,0,4.2237,4.2259,23.51,FALSE
SrIF,P4/nmm,4.6395,4.2239,4.2239,26.006,TRUE
BaH4O3,P2_1/m,3.6137,4.2243,6.3966,28.297,FALSE
SnSe,Pmn2_1,1.1474,4.2247,4.506,22.787,FALSE
Cu2Se,Pmma,0.0257,4.2248,5.1395,23.07,FALSE
SnCl2,P-3m1,2.437,4.2249,4.2249,23.732,TRUE
GaBr,P4mm,2.0898,4.2252,4.2252,22.485,TRUE
RbHfMg6O7,P4mm,0,4.2254,4.2254,28.801,TRUE
GdSI,Pmmn,1.5882,4.2258,5.3473,26.809,FALSE
YTe3,P4mm,0,4.2265,4.2224,24.447,FALSE
SrC2,P-3m1,0.1985,4.2265,4.2265,24.664,TRUE
Be2Sb,P-4m2,0,4.2267,4.2235,22.957,FALSE
BiF3,P-6m2,1.795,4.2275,4.2275,22.934,TRUE
Sn2SbS2I3,Pmmn,1.1641,4.2278,16.271,25.285,FALSE
AlSb,P4/nmm,0,4.2279,4.2279,23.942,TRUE
PbBr2,P-6m2,3.0114,4.2282,4.2282,23.838,TRUE
Tl2Se3,P1,0,4.2289,7.0378,29.673,FALSE
Sb4F,P2/m,0,4.2295,12.547,33.721,FALSE
U(BO3)2,C2,2.2717,4.2295,6.6798,23.596,FALSE
RbNaMg6O7,P4mm,0,4.2301,4.2301,28.261,TRUE
CaBr2,P-3m1,4.8702,4.2309,4.2309,22.742,TRUE
SrF2,P-4m2,6.017,4.231,4.231,22.656,TRUE
YbI3,Pmmn,0,4.2312,9.5239,23.788,FALSE
SiTe,Aem2,0.6542,4.2314,4.2314,22.839,TRUE
Sb4Br,P2/m,0,4.2316,12.749,33.718,FALSE
Sb4Cl,P2/m,0,4.2317,12.674,33.719,FALSE
NpTe3,Pmma,0,4.2327,4.1147,30.612,FALSE
Sb2Te2Se,P-3m1,0.6395,4.2334,4.2334,27.085,TRUE
AgTe,P-1,0,4.234,6.621,25.321,FALSE
TeAs,P4/nmm,0,4.2347,4.2347,23.274,TRUE
TeAs,C2/m,0,4.2348,4.2348,23.436,TRUE
CeTe2,Fmm2,0,4.2366,4.2274,23.421,FALSE
AgCl,Cmme,2.6818,4.2366,4.2366,24.122,TRUE
MoBr2,P2_1/c,0.4608,4.2368,6.921,21.554,FALSE
I3N,Pmn2_1,0.403,4.237,11.963,27.258,FALSE
SrHI,P4/nmm,3.9292,4.2384,4.2384,25.844,TRUE
CuHgSeBr,Pmma,0.9406,4.2391,10.058,29.36,FALSE
GeTe,Pmn2_1,0.9309,4.2394,4.4298,23.027,FALSE
ThSe3,P2_1/m,1.291,4.2398,5.7963,26.581,FALSE
MoC3,P-6m2,0,4.24,4.24,"20.0,""",TRUE
CeSe2,P-3m1,1.1183,4.2416,4.2416,22.873,TRUE
BiSe,P-3m1,0,4.242,4.242,60.986,TRUE
MgTi,Pmma,0,4.2423,4.2755,27.555,FALSE
Bi2Pd,P2_1/m,0,4.2425,5.4465,24.409,FALSE
Sb9F2,P2_1/m,0,4.2446,12.66,34.936,FALSE
CdS,P3m1,1.6772,4.2449,4.2449,20.166,TRUE
NiC4,P1,0,4.2457,2.4523,23.055,FALSE
SmI3,Pmmn,1.8831,4.2466,9.984,24.348,FALSE
Sb4I,P2/m,0,4.2468,12.777,33.739,FALSE
TbPb5,Pmmm,0,4.2471,7.1871,23.326,FALSE
GeBi,C2/m,0.9413,4.2473,12.345,24.726,FALSE
Sb9Cl2,P2_1/m,0,4.2476,12.675,34.944,FALSE
Ge3As4,C2,0,4.2476,4.2476,27.849,TRUE
Ge2Sb2Te5,P-3m1,0.2664,4.2477,4.2477,35.253,TRUE
Sb9I2,P2_1/m,0,4.2479,12.767,34.958,FALSE
La2PBr2,P-3m1,0,4.2483,4.2483,27.285,TRUE
AlCl,P4/nmm,2.4321,4.2496,4.2496,22.861,TRUE
GeBi,P-1,0.7646,4.2505,12.325,24.962,FALSE
MnTe,P4/nmm,0,4.2507,4.2507,23.119,TRUE
AgBr,Cmme,2.5154,4.2512,4.2512,24.122,TRUE
Bi2Pb2Se5,P-3m1,0.806,4.2514,4.2514,34.26,TRUE
AgClO2,P2_1/m,0.1862,4.2516,5.2775,24.953,FALSE
NpI3,Pmmn,0,4.2531,9.9263,24.865,FALSE
Ba5Tm,P1,0,4.2548,7.9122,25.467,FALSE
TiTe,P4/nmm,0,4.2557,4.2557,22.865,TRUE
AuI,Cmme,1.7686,4.2566,4.2566,24.122,TRUE
Bi2TeSe2,P-3m1,1.1357,4.2571,4.2571,27.475,TRUE
CoPb3,P-6m2,0,4.2579,4.2579,24.981,TRUE
HfTe,P4/nmm,0,4.2598,4.2598,22.865,TRUE
SrLaCl5,P2_1/m,3.702,4.2601,15.145,24.716,FALSE
NaMnSe2,P3m1,0,4.2602,4.2602,25.09,TRUE
EuSe,P4/mmm,0,4.2605,4.2605,25.905,TRUE
Zn(BH4)2,Pmc2_1,4.5224,4.2606,8.1069,25.788,FALSE
GaSb,P4/nmm,0,4.262,4.262,23.942,TRUE
Ba5Sc,P1,0,4.2625,7.7662,25.323,FALSE
BN5,Pmc2_1,0,4.2632,7.0168,26.806,FALSE
Bi2Te2S,P4/mmm,0.5733,4.2644,4.265,26.487,FALSE
SmTe,P4/nmm,0,4.2652,4.2652,23.293,TRUE
InP,P-6m2,0.3417,4.2653,4.2653,20,TRUE
EuBi2,Pm,0.0048,4.2655,5.3091,23.173,FALSE
SiSn,P3m1,0.3168,4.2663,4.2663,20.769,TRUE
PdF2,P-1,0,4.2668,3.7885,24.931,FALSE
LaTe3,P4mm,0,4.268,4.2647,24.447,FALSE
SiBi2,Pmc2_1,0.7862,4.2682,11.58,26.149,FALSE
Sb9Br2,P2_1/m,0,4.2685,12.753,34.948,FALSE
GeI2,P-3m1,2.1318,4.2685,4.2685,23.515,TRUE
Ba2InBrO3,P4/nmm,2.02,4.2711,4.2711,33.35,TRUE
ZnTe,P4/nmm,0.7488,4.2716,4.2716,22.99,TRUE
In2Te3,P-3m1,0,4.2732,4.2732,26.98,TRUE
CdBiClO2,P2_1/m,3.171,4.2734,7.5452,25.124,FALSE
HgIBr,Cm,2.2286,4.2735,4.2735,23.441,TRUE
SbSe,P-1,0,4.2758,4.8009,22.849,FALSE
GaTe,P-6m2,0.2318,4.2778,4.2778,27.118,TRUE
LiC2,P4mm,0,4.2781,4.2781,24.32,TRUE
IN4,P2/m,0.338,4.2784,9.5326,33.987,FALSE
TePb,P3m1,1.6202,4.2787,4.2787,21.529,TRUE
AuCl,P3m1,0.7903,4.279,4.279,20.195,TRUE
CaBiClO2,P2_1/m,3.1975,4.2792,7.8057,26.997,FALSE
PdSe,P4/nmm,0,4.2796,4.2796,22.999,TRUE
SbTeI,C2/m,0.9828,4.2798,7.6953,24.08,FALSE
Mg3Sn,P4mm,0,4.2803,4.269,22.353,FALSE
BF3,Pmc2_1,8.5829,4.2809,5.889,22.613,FALSE
CdI2,P-3m1,2.4768,4.2824,4.2824,23.435,TRUE
Ca2As,P-3m1,0,4.2834,4.2834,23.013,TRUE
LiCuPO4,P-42_1m,0,4.2835,4.3183,26.084,FALSE
P2W,P-1,0.0489,4.2839,6.065,22.584,FALSE
KRbMg6O7,P4mm,0,4.284,4.284,28.122,TRUE
SrCu,P6/mmm,0,4.2849,4.2849,24,TRUE
BiTeCl,P3m1,1.8037,4.285,4.285,23.407,TRUE
HgS,P3m1,0.0248,4.2852,4.2852,20.166,TRUE
PtI2,Pmna,0.9291,4.2861,7.3238,22.605,FALSE
TePb,Pmmn,1.601,4.2861,6.6293,21.993,FALSE
ScTe3,P4/nmm,0,4.2872,4.2869,29.216,FALSE
NiBi,P-6m2,0,4.2873,4.2916,20,FALSE
KC2,P4/nmm,0.3969,4.2881,4.2881,24.906,TRUE
Bi2Te2S,P-3m1,0.9331,4.2882,4.2882,27.069,TRUE
CeI3,Pmmn,0.0306,4.2884,10.054,24.803,FALSE
Ge3(BiTe3)2,P3m1,0,4.2886,4.2886,38.682,TRUE
RbC12,P6/mmm,0,4.2889,4.2889,23.785,TRUE
BCl3,P1,4.4614,4.2894,7.5312,23.087,FALSE
BaSr,P3m1,0,4.2895,4.2895,34.509,TRUE
In3Co,P-6m2,0,4.2909,4.2909,25.13,TRUE
RbBa,P2_1/m,0,4.2913,4.1413,25.918,FALSE
Ba3In2Br2O5,P4/mmm,1.5442,4.2916,4.2916,30.721,TRUE
KC12,P6/mmm,0,4.2923,4.2923,23.785,TRUE
Be2Sb,P6/mmm,0,4.293,4.293,23.013,TRUE
YO3,P-1,2.3,4.2931,7.3031,22.608,FALSE
NiCl2,P-1,0,4.2937,4.4218,24.953,FALSE
InN,P4/nmm,0.8113,4.2941,4.2942,23.942,TRUE
Sb2Te3,P2_1/m,0.6849,4.2945,10.741,26.225,FALSE
Mg(BH4)2,Pmc2_1,6.5946,4.2952,8.3239,26.196,FALSE
Ce(SiAu2)2,P4/mmm,0,4.2959,4.3069,24.858,FALSE
PbF3,P1,1.3307,4.296,6.0537,24.043,FALSE
Na2I,P-3m1,0,4.2963,4.2963,23.407,TRUE
Sb2Te3,P2_1/m,0.6817,4.2967,10.673,24.943,FALSE
Sn2IF3,P2_12_12,2.9524,4.2967,8.8773,27.253,FALSE
Cu2Te,Pmma,0,4.2968,4.9788,23.357,FALSE
LiC12,P6/mmm,0,4.2969,4.2969,23.785,TRUE
CrP2,P-1,0,4.2972,5.5735,22.645,FALSE
KBiF4,Cm,0.8259,4.2976,4.1867,32.482,FALSE
U(HO2)2,Pmna,1.8739,4.298,6.8793,23.421,FALSE
KRbMg6O7,P4mm,0.058,4.2988,4.2988,27.758,TRUE
BaF2,C2/m,6.1476,4.2993,4.2928,24.863,FALSE
V2S5,Pmmn,0.5321,4.3003,13.85,25.401,FALSE
HfS,P4/nmm,0,4.3005,4.3005,22.865,TRUE
TlS,P3m1,0.1087,4.3007,4.3007,21.25,TRUE
NdI3,Pmmn,1.8925,4.3011,10.009,24.388,FALSE
CeTe,P4/nmm,0,4.3013,4.3013,23.21,TRUE
NaC12,P6/mmm,0,4.3014,4.3014,23.785,TRUE
SnTe,Pbcm,0.4036,4.3024,12,22.971,FALSE
Mn2O7,Pmma,0,4.304,5.353,27.207,FALSE
NdTe2Se,P4/nmm,0,4.3046,4.3082,29.007,FALSE
SnBr2,P-3m1,2.2536,4.3049,4.3049,23.732,TRUE
MoP2,P-1,0.0279,4.305,6.091,22.598,FALSE
BaThBr6,Pmm2,1.9957,4.3054,9.5798,24.706,FALSE
AlBi,P2_1/m,0,4.3057,8.6819,19.48,FALSE
HgP,P-6m2,0,4.3069,4.3069,20.274,TRUE
USeO5,P2_1/m,1.9944,4.3071,9.4271,23.363,FALSE
Mg2P,P-4m2,0,4.3076,4.3232,22.957,FALSE
YPb5,Pmmm,0,4.3078,7.0038,23.46,FALSE
SnPbF4,P4/nmm,3.5213,4.3086,4.3086,27.918,TRUE
Ca2As,Pmmn,0,4.3098,5.7265,25.416,FALSE
SrBr2,Pmma,2.9781,4.3106,7.9339,23.548,FALSE
AgI2,P2_1/c,0,4.3114,7.1337,21.496,FALSE
Eu(CdP)2,P-3m1,0,4.312,4.312,25.184,TRUE
HgH2NCl,Pmma,2.3038,4.3121,6.7101,23.939,FALSE
SrLaBr5,P2_1/m,3.2073,4.3121,16.091,26.126,FALSE
TlS,P-6m2,1.0827,4.3131,4.3131,23.528,TRUE
BaSr,P-3m1,0,4.3133,4.3133,28.784,TRUE
KCl,P4/mmm,4.8076,4.3135,4.3135,"20.0,""",TRUE
LaMgI5,Pmma,1.9998,4.3153,17.342,25.096,FALSE
AgBr,P-3m1,1.8664,4.3169,4.3169,23.814,TRUE
Bi,P-3m1,0.5565,4.3171,4.3171,22.359,TRUE
BiTeBr,P3m1,1.651,4.3181,4.3181,23.59,TRUE
Pr2I5,P2_1/m,0.1559,4.319,16.917,25.77,FALSE
PrTe2Se,P4/nmm,0,4.3198,4.3226,29.018,FALSE
Cu2Te,P6/mmm,0,4.3203,4.3203,24.537,TRUE
In3Te4,P-3m1,0,4.3206,4.3206,30.648,TRUE
Tl2Te3,P-3m1,0,4.3217,4.3217,26.98,TRUE
La2PI2,P-3m1,0,4.3232,4.3232,27.507,TRUE
GeBi2,Pmc2_1,0.7057,4.3232,11.808,25.607,FALSE
Sb2Te3,P-3m1,0.6616,4.3245,4.3245,27.395,TRUE
LuTe3,P4/nmm,0,4.3246,4.3236,28.948,FALSE
Bi4F,P2/m,0,4.3249,13.169,33.713,FALSE
Bi3Se4,P-3m1,0,4.325,4.325,30.181,TRUE
GeTe,Pmna,0.2966,4.325,7.8608,24.071,FALSE
MgI2,P-4m2,3.5368,4.3262,4.3262,22.656,TRUE
PbCl2,P-3m1,3.1024,4.3263,4.3263,23.732,TRUE
Sb2S3,Pc,1.7667,4.3289,12.44,23.079,FALSE
TmTe3,P4/nmm,0,4.3298,4.3328,29.016,FALSE
Sn3Rh,P-6m2,0,4.3327,4.3327,24.981,TRUE
TlF3,P1,2.6566,4.3327,6.8917,22.878,FALSE
InTe,C2/m,1.2225,4.3342,6.0964,23.405,FALSE
Bi2Te2Se,P-3m1,0.883,4.3343,4.3343,27.387,TRUE
UCO5,Pmm2,2.2299,4.3345,4.8832,23.586,FALSE
ErTe3,P4/nmm,0,4.3351,4.3352,28.938,TRUE
AlBi,P4/nmm,0,4.3354,4.3354,23.942,TRUE
SI,P-1,1.4148,4.3367,9.5693,25.777,FALSE
InTe,P-1,1.3874,4.3377,12.993,25.591,FALSE
SnSb2,Pmc2_1,0.7101,4.338,11.764,25.607,FALSE
Mn(BiTe2)2,P-3m1,0.8198,4.338,4.338,30.881,TRUE
CdSe,P3m1,0,4.3392,4.3392,56.585,TRUE
Cr3As2,C2/m,0,4.3396,3.0141,22.034,FALSE
LaTe2Se,P4/nmm,0,4.3399,4.3413,29.035,FALSE
AlN5,Pmc2_1,0,4.3401,12.016,26.806,FALSE
LiAuI4,P-1,0.8539,4.3405,7.0756,23.691,FALSE
Sb2O3,P1,1.936,4.3408,3.2429,25.082,FALSE
HoTe3,P4/nmm,0,4.3421,4.3421,29.088,TRUE
HfSe,P4/nmm,0,4.3426,4.3426,22.865,TRUE
SbTe,P-3m1,0,4.3427,4.3427,61.447,TRUE
YTe3,P4/nmm,0,4.3445,4.3463,29.216,FALSE
Te2Pb,P-4m2,0,4.3452,4.3452,22.855,TRUE
In2Te5,C2,1.1032,4.3462,8.6328,24.09,FALSE
AgCl,P-6m2,1.9701,4.3465,4.3465,"20.0,""",TRUE
DyTe3,P4/nmm,0,4.3475,4.3476,29.107,TRUE
GaBi,P4/nmm,0,4.3476,4.3476,23.942,TRUE
UTl2O4,P4/mmm,2.0962,4.3476,4.3476,24.354,TRUE
TbTe3,P4/nmm,0,4.3499,4.35,29.156,FALSE
InTe,P-6m2,1.4538,4.3506,4.3506,27.689,TRUE