Formula,Space Group,Band Gap,a,b,c,a=b
AsBr3,P2_1/c,2.91,8.1096,10.076,24.867,FALSE
Cu(BiO2)2,P42_12,0.0647,8.1106,8.1106,21.209,TRUE
GaAs,P4/mbm,0,8.1171,8.1171,"20.0,""",TRUE
As2WO7,P2_1/c,3.2724,8.1248,9.9237,26.995,FALSE
Ca2Ge,Pbcm,0.0434,8.1323,8.1141,28.824,FALSE
Bi3B,P-3m1,1.00E-04,8.1341,8.1341,21.198,TRUE
ThI4,P2_1/c,1.8413,8.1379,14.388,24.54,FALSE
TcSO6F,P2_1/c,2.8269,8.1462,8.9815,25.991,FALSE
LaPb6ClO7,C2/m,2.2017,8.1523,10.065,27.604,FALSE
PF3,P2_1/c,5.67,8.1598,9.4468,24.26,FALSE
SiSb3,P-3m1,0,8.1628,8.1628,21.405,TRUE
LiV2F9,P-1,2.0453,8.163,10.658,22.664,FALSE
Tl2Te3,P1,0.2702,8.1654,7.7532,38.839,FALSE
Bi2PdO4,P42_12,0.492,8.1667,8.1667,22.097,TRUE
SbCl3,P2_1/c,3.3376,8.1682,9.2,24.547,FALSE
TaCo3,P6/mmm,0,8.1696,8.1701,24.03,FALSE
MoNCl3,P-1,1.61,8.1698,9.1701,25.982,FALSE
NaI3O8,P-4,3.421,8.1705,8.1705,24.573,TRUE
BaH6C4O7,P-1,2.6621,8.176,8.8572,26.852,FALSE
LaPb6BrO7,Pmma,2.1613,8.1772,9.5766,27.455,FALSE
Ba2LiN,P-4m2,0,8.1798,8.1798,26.784,TRUE
SiBr4,P1,3.949,8.18,7.984,22.639,FALSE
Ge(PbS2)2,P2_1/c,1.9672,8.1813,10.923,28.037,FALSE
Mn2I7,P2/c,0,8.1825,13.371,23.69,FALSE
CI4,P1,0.6322,8.187,6.7245,22.347,FALSE
TeI,Pmma,0.8259,8.1871,9.9862,24.867,FALSE
AgPb4ClO4,P4/n,2.8222,8.1938,8.1938,26.38,TRUE
KB(CO2)4,Pmma,2.9249,8.2012,11.038,22.838,FALSE
CdBr2,P-4m2,3.0964,8.2184,8.2184,26.753,TRUE
SbBr3,P2_1/c,2.6705,8.2275,9.9973,24.869,FALSE
MgFe4O9,P2/c,0.0064,8.2285,8.5804,27.049,FALSE
SbI4,P-1,0,8.23,6.6099,23.187,FALSE
HgBr2,P-4m2,2.0802,8.2428,8.2428,26.753,TRUE
VRh3,P3m1,0,8.2434,8.2482,24.03,FALSE
Re2I7,Pc,0.0282,8.2468,11.956,23.689,FALSE
MgCo4O9,Pc,0.0162,8.2524,8.3846,26.25,FALSE
Sb2S2O,P-1,1.8598,8.2524,11.032,23.479,FALSE
PCl3,P2_1/c,3.8724,8.2554,9.5347,24.56,FALSE
Fe4Se5,P2/c,0.2705,8.2562,8.2287,22.534,FALSE
InBi5,Pmc2_1,0.0551,8.262,14.129,26.806,FALSE
GeSb3,P-3m1,0,8.2648,8.2646,21.68,TRUE
Mn3(SeO3)4,P-1,0.9491,8.27,10.127,26.2,FALSE
TlBi5,Pmc2_1,0.0927,8.2825,14.245,26.806,FALSE
I3N,P2_1/c,0.6439,8.289,10.073,24.583,FALSE
BiTe,P2_1/c,0.199,8.2904,7.5181,22.075,FALSE
Zn3P2,P-4m2,1.4536,8.2993,8.2993,28.068,TRUE
Y3I7O,P3m1,2.5761,8.2997,8.2993,23.609,TRUE
B2(CN2)3,P321,2.6229,8.3012,8.2983,20.997,FALSE
Li3Sb2(PO4)3,C2,3.9374,8.3076,8.3076,25.624,TRUE
Cr4O9,P4/n,0.4052,8.3078,8.3076,24.343,TRUE
Os4S5,P-1,0,8.3109,8.3532,22.535,FALSE
In2Te3,P1,0.3266,8.3322,8.4899,38.817,FALSE
B2S,P1,0.5693,8.3382,8.0858,23.541,FALSE
V4O9,P4/n,0.0038,8.3438,8.3438,24.323,TRUE
Ru4S5,P4/n,0,8.3581,8.3433,22.535,FALSE
K2GeTe4,P2_1/c,1.0579,8.3683,9.9191,30.765,FALSE
AlBi5,Pmc2_1,0,8.3687,13.545,26.806,FALSE
CaBr2,P-1,4.8938,8.3725,8.4166,23.513,FALSE
PBr3,P2_1/c,3.0828,8.3758,10.121,24.875,FALSE
ZnI2,P-4m2,2.9327,8.3787,8.3944,26.753,FALSE
Re2S2O13,Pba2,2.3877,8.3792,9.7004,24.503,FALSE
ZrI4,P-1,1.7218,8.3839,7.1279,22.732,FALSE
MgV4O9,P4/n,2.0792,8.402,8.402,26.632,TRUE
InP,P4/mbm,0.188,8.4107,8.4107,"20.0,""",TRUE
Zr(IO3)4,P4/n,3.3015,8.4127,8.4127,26.72,TRUE
V4ZnO9,P4/n,1.8299,8.415,8.415,26.514,TRUE
MgCr4O9,P4/n,0.8168,8.4159,8.4159,26.164,TRUE
ZnCo4O9,P2/c,0.0377,8.4248,8.2311,24.522,FALSE
ZnCr4O9,P4/n,0.7474,8.425,8.425,25.463,TRUE
V2Ni(PO5)2,P2_1/c,2.8908,8.4295,8.664,26.136,FALSE
AsI3,P2_1/c,1.8704,8.4373,10.949,24.538,FALSE
CaCr4O9,P4/n,0.8074,8.4606,8.4607,26.564,TRUE
Si3N4,Amm2,0,8.4617,8.4619,20,TRUE
Te6MoBr3,P-1,1.1226,8.4772,17.071,30.566,FALSE
GaSb3,P-3m1,0.3806,8.4794,8.4794,21.198,TRUE
Te3Cl2,P2_1/c,1.367,8.4896,13.136,24.228,FALSE
Nb2Te4Cl10O,P-1,1.2578,8.4987,11.18,24.808,FALSE
MgTi4O9,P4/n,2.7488,8.5006,8.5006,26.165,TRUE
Mn3OF6,P-1,0.6662,8.5042,8.5021,22.167,FALSE
Tl2Te2O5,P2_1/c,3.1308,8.506,12.047,26.504,FALSE
ZnFe4O9,P-1,0,8.5078,8.4685,23.806,FALSE
AlSb3,P-3m1,0.3897,8.5098,8.5098,21.198,TRUE
MgMn4O9,P4/n,0.1588,8.51,8.5101,25.605,TRUE
Sn4SF6,Pmn2_1,3.2703,8.5129,8.5082,24.16,FALSE
Te3(PdBr)4,P-1,0.7376,8.519,10.124,27.212,FALSE
Sr2Ge,P4/nmm,0.0062,8.5242,8.5226,28.824,FALSE
CaTi4O9,P4/n,2.9668,8.5255,8.5255,26.682,TRUE
Ti4ZnO9,P4/n,2.7057,8.5376,8.5376,25.494,TRUE
Mn4ZnO9,P4/n,0,8.5405,8.5409,24.336,TRUE
SbI3,P2_1/c,2.109,8.5435,11.03,24.734,FALSE
Sr2Si,P4/nmm,0.0133,8.5671,8.5709,28.824,FALSE
SrCl2,P-1,5.4516,8.5738,8.6356,23.519,FALSE
Hg4AsI5,P4/nbm,1.2032,8.5803,8.5803,26.884,TRUE
La2Si(IO2)2,P2_1/c,3.0927,8.5808,8.4864,28.088,FALSE
PI3,P2_1/c,1.9425,8.5989,10.935,24.542,FALSE
Ru4Se5,P4/n,0,8.6096,8.6112,22.535,FALSE
Zn3As2,P-4m2,0.8138,8.6151,8.6151,25.781,TRUE
Os4Se5,P4/n,0.0139,8.6193,8.6219,22.535,FALSE
Ca2MgSi2O7,P-42_1m,3.1476,8.6309,8.6309,18.178,TRUE
TlP,P4/mbm,0,8.6541,8.6541,"20.0,""",TRUE
SbPb2S2I3,P2_1/c,2.0307,8.6826,16.513,25.947,FALSE
TcF3,P-3m1,0.9071,8.6998,8.6997,26.856,TRUE
Al(BiO2)2,P42_12,0,8.726,8.726,22.277,TRUE
Sb2Te5,P2_1/c,0.3358,8.7304,7.7534,32.073,FALSE
VIr3,P6/mmm,0,8.7426,8.7419,24.03,FALSE
Li3V5O14,P31m,2.6802,8.7598,8.757,23.093,FALSE
InAs,P4/mbm,0,8.7636,8.7636,"20.0,""",TRUE
InSb3,P-3m1,0.4637,8.7828,8.7828,21.198,TRUE
AlSb,P4/mbm,0.3377,8.7868,8.7868,"20.0,""",TRUE
GaBi3,P-3m1,0.0787,8.7953,8.7953,21.198,TRUE
GaSb,P4/mbm,0,8.8025,8.8025,"20.0,""",TRUE
CdI2,P-4m2,2.6979,8.8115,8.8115,26.753,TRUE
Li3Sb2(PO4)3,P-3,3.3088,8.8285,8.8285,28.661,TRUE
HgI2,P-4m2,1.9006,8.8316,8.8316,26.753,TRUE
VO2F,P2_1/c,2.7242,8.8332,12.21,25.329,FALSE
TaRh3,P6/mmm,0,8.8427,8.8426,24.03,TRUE
VBiO5,P2_1/c,0,8.8437,10.291,23.603,FALSE
TlSb3,P-3m1,0.0053,8.8443,8.8443,21.198,TRUE
AlBi3,P-3m1,0.0667,8.8458,8.8458,21.198,TRUE
Ta2Te4Br10O,P-1,1.0839,8.8733,10.885,25.069,FALSE
PtCI2O,P2_1/c,1.5508,8.8779,13.56,27.162,FALSE
Hg3(BO3)2,P321,3.4067,8.9048,8.9048,20.709,TRUE
Sb2P3(HO3)3,P-1,3.7504,8.9207,9.1237,28.059,FALSE
CaI2,P-1,4.0603,8.9224,8.9794,23.508,FALSE
Mo4O9,P1,1.4789,8.9268,8.8423,24.342,FALSE
Hg4P2O7,P2/c,2.888,8.9297,9.8362,26.944,FALSE
Te5Os4,P-1,0,8.9594,8.9602,22.533,FALSE
TiPb9O11,P4,2.773,8.9628,8.9634,22.939,FALSE
SrBr2,P-1,4.8107,8.972,9.0421,23.516,FALSE
Tl3BiI6,P2_1/c,2.4696,8.9861,13.679,31.545,FALSE
Ag2SO3,P2_1/c,2.9361,8.9961,10.273,18.145,FALSE
Bi2Te5,P2_1/c,0.5878,8.9982,7.8346,32.02,FALSE
TaIr3,P6/mmm,0,9.0064,9.002,24.03,FALSE
Sc6C2I11,P-1,0.3862,9.0091,16.13,27.744,FALSE
S4O9,P-3,3.0287,9.0139,9.0139,22.777,TRUE
Cd3P2,P-4m2,0.8441,9.0164,9.0164,28.725,TRUE
Te5Ru4,P4/n,0,9.0182,9.0171,22.534,FALSE
P4C3,P-6m2,0.1448,9.0216,9.0216,20,TRUE
TlRe6Se8Cl3,P-1,1.3992,9.0298,11.031,28.361,FALSE
Se4O9,P-3,1.7265,9.0371,9.0371,22.777,TRUE
ReF3,P-3m1,1.2675,9.0884,9.0884,26.856,TRUE
InBi3,P-3m1,0.1737,9.0892,9.0892,21.198,TRUE
Ag2PdCl4,Pmna,1.2462,9.0995,8.1159,24.653,FALSE
K2Hg3(GeS4)2,P2,1.8897,9.1034,9.4644,22.959,FALSE
W4O9,Pc,1.6792,9.1052,9.1127,24.342,FALSE
Bi2S5,P2_1/c,0.4758,9.1085,6.548,32.158,FALSE
As2Se5,P2_1/c,0.9557,9.1103,6.6446,32.136,FALSE
AlBi,P4/mbm,0,9.1202,9.1202,"20.0,""",TRUE
Ce(SbSe2)2,C2/m,0.0249,9.1236,10.574,23.707,FALSE
B2TeO5,P2_1/c,3.7294,9.1247,9.9698,23.575,FALSE
Bi2Se5,P2_1/c,0.4048,9.1342,7.1179,32.11,FALSE
Nb4O9,P4/n,0,9.1389,9.1398,24.323,FALSE
BiMoO5,P2_1/c,0,9.1409,11.268,23.687,FALSE
Ta4O9,P4/n,0.3931,9.1454,9.1459,24.323,TRUE
TlBi3,P-3m1,0.0029,9.1561,9.1561,21.198,TRUE
Ge3N4,P-6m2,1.7417,9.1822,9.1822,20,TRUE
BaCl2,P-1,5.3544,9.1889,9.2657,23.531,FALSE
MgW4O9,P4/n,1.7813,9.2056,9.2067,26.528,FALSE
TlAs,P4/mbm,0,9.2078,9.2078,"20.0,""",TRUE
ReBiO5,P2_1/c,2.6675,9.2338,12.077,23.675,FALSE
ZrTe2Br5,P2/m,1.1226,9.2837,11.435,23.696,FALSE
Cd3As2,P-4m2,0.3111,9.2942,9.2942,29.118,TRUE
Nb2Te6I,P-1,0.7258,9.3143,9.7288,25.38,FALSE
Ba2YI7,Pc,2.546,9.3155,15.003,24.986,FALSE
Na2Ti2O5,Pca2_1,2.4453,9.3193,10.81,25.9,FALSE
GaBi,P4/mbm,0,9.3528,9.3528,"20.0,""",TRUE
Te4O9,P-3,2.6005,9.4311,9.4311,22.777,TRUE
Te5As2,P2_1/c,0.4578,9.4399,7.2517,32.115,FALSE
InSb,P4/mbm,0,9.4434,9.4434,"20.0,""",TRUE
Al2SnCl6O,P-1,3.9486,9.4461,8.9694,25.623,FALSE
Sb2Se5,P2_1/c,0.6322,9.4584,6.8798,32.129,FALSE
SrI2,P-1,4.22,9.5022,9.57,23.514,FALSE
LiSn4(PO4)3,P-1,3.1972,9.5069,11.042,25.189,FALSE
ZnSb4O9,P4/n,0,9.5595,9.5406,22.503,FALSE
BaBr2,P-1,4.7633,9.584,9.6744,23.523,FALSE
TlMo2Cl7O2,P-1,2.1649,9.5919,9.9987,25.145,FALSE
AuSeClO3,P-1,1.4936,9.6462,10.441,23.096,FALSE
As4C3,P-6m2,0.1109,9.6487,9.6486,20,TRUE
WS3,P2_1/c,0.0041,9.7101,9.9331,24.483,FALSE
MoS3,P2_1/c,0.0054,9.7165,9.9215,24.476,FALSE
Li2V(CO3)3,Pma2,2.6002,9.7474,9.4954,22.594,FALSE
V2P4S13,P-1,0.1293,9.7719,16.117,23.122,FALSE
B2Se,P3,0.967,9.802,9.802,23.564,TRUE
Al2S,P3,0,9.8183,9.8183,23.564,TRUE
Sc(IO3)3,P-3,3.9826,9.8276,9.8276,22.843,TRUE
In(IO3)3,P-3,3.5169,9.8408,9.8408,23.08,TRUE
WF2,Pbam,0.6074,9.8516,11.33,28.499,FALSE
PW4Cl11,Pmmn,0.6511,9.9281,11.445,26.196,FALSE
Tl(IO3)3,P-3,2.5196,9.9531,9.9548,23.237,FALSE
Hg2TeBr3,P2_1/c,2.298,9.9565,12.843,24.589,FALSE
RbHgSbSe3,P2_1/c,1.8423,9.9591,11.147,25.468,FALSE
AlAs,P1,0,9.9719,5.6301,20.082,FALSE
TlBS2,P-3m1,1.8056,10.009,10.009,22.76,TRUE
InBi,P4/mbm,0,10.019,10.019,"20.0,""",TRUE
Si3P4,Amm2,0,10.072,10.072,20,TRUE
BiAuCl6,P-1,1.0021,10.075,14.169,31.017,FALSE
TlSb,P4/mbm,:true,10.092,10.092,20,TRUE
BaI2,P-1,4.121,10.095,10.184,23.528,FALSE
WSe3,P2_1/c,0,10.114,10.505,24.491,FALSE
MoSe3,P2_1/c,0,10.139,10.509,24.479,FALSE
CrS3,P2_1/c,0.4902,10.147,9.9581,24.483,FALSE
TaS2,C2/m,0,10.171,10.177,24.479,FALSE
TcCl3,P-3m1,0.9309,10.186,10.186,26.856,TRUE
NbS2,C2/m,0,10.206,10.212,24.476,FALSE
ReCl3,P-3m1,1.2066,10.246,10.246,26.856,TRUE
TlBi,P4/mbm,0,10.358,10.358,"20.0,""",TRUE
Re3(TeBr)7,P-3,1.1539,10.365,10.365,28.909,TRUE
Al2Se,P3,0.299,10.411,10.411,23.564,TRUE
Tl2Ge2S5,C2,2.6894,10.463,10.463,25.224,TRUE
NbSe2,C2/m,0,10.498,10.506,24.481,FALSE
Cu2H2CO5,P2_1/c,0,10.525,11.861,21.451,FALSE
TaSe2,C2/m,0,10.536,10.563,24.481,FALSE
LiVF6,P2_1/c,3.4307,10.538,10.295,25.231,FALSE
MnF3,P-3m1,1.8243,10.556,10.556,26.856,TRUE
AlPI8,Pc,1.4735,10.588,17.623,25.837,FALSE
CrSe3,P2_1/c,0.3782,10.592,10.598,24.482,FALSE
TcBr3,P-3m1,0.9798,10.621,10.621,26.856,TRUE
ReBr3,P-3m1,1.248,10.682,10.682,26.856,TRUE
Mg(SbO2)2,Pbcm,3.115,10.682,10.171,22.332,FALSE
Zn2(PS3)3,C2/m,1.7018,10.699,10.593,24.549,FALSE
B2Te,P3,1.0398,10.727,10.727,23.381,TRUE
Al2Se,P3,0.1462,10.814,10.814,23.381,TRUE
B2S3,P-1,2.6824,10.827,17.451,38.836,FALSE
V4S9Br4,P4/nmm,0.6503,10.841,10.841,25.024,TRUE
NbTe2,C2/m,0,10.886,11.195,24.476,FALSE
Ga2S,P3,1.0243,10.891,10.891,23.381,TRUE
TaTe2,C2/m,0,10.928,11.049,24.084,FALSE
Ga2S,P3,1.021,10.935,10.935,23.564,TRUE
Te3Mo,P2_1/c,0,10.944,11.355,24.486,FALSE
Te3W,P2_1/c,0.0179,10.951,11.294,24.489,FALSE
YBi3F15,P2_1/m,1.1719,10.952,11.268,28.797,FALSE
ReSeCl,P2_12_12,1.6093,10.961,11.748,28.563,FALSE
AlBiCl6,P2_1/c,3.998,10.987,17.622,24.64,FALSE
Tl2Ge2Se5,C2,2.0828,10.995,10.995,25.802,TRUE
VF4,P-3,1.9193,11.026,11.028,24.797,FALSE
B2Te,P-3m1,0,11.065,11.065,23.564,TRUE
Nb3Cl7,Pmna,1.0564,11.133,13.402,25.931,FALSE
KPSe6,Pca2_1,1.9942,11.169,11.875,25.773,FALSE
RbReCl4,Pmma,1.1604,11.218,15.218,23.938,FALSE
RbPSe6,Pca2_1,2.0015,11.234,12.172,25.87,FALSE
TcI3,P-3m1,0.7494,11.24,11.24,26.856,TRUE
Pb3N4,Amm2,0.1379,11.266,11.264,20,FALSE
Bi14Te13S8,P-3,0.872,11.269,11.269,27.278,TRUE
As4C3,P1,0.9699,11.271,11.098,20.011,FALSE
ReI3,P-3m1,0.9913,11.314,11.314,26.856,TRUE
WCl2,P4/mbm,2.8162,11.358,11.359,28.916,FALSE
MoCl2,P4/mbm,2.4513,11.381,11.388,28.499,FALSE
AlInI4,P2_1/m,2.8517,11.417,12.078,25.696,FALSE
CrTe3,Pmna,0.2795,11.455,11.629,24.424,FALSE
Ga2Se,P3,1.0503,11.462,11.462,23.564,TRUE
MnCl3,P-3m1,0.7225,11.504,11.504,26.856,TRUE
In2S,P3,0.7223,11.508,11.508,23.381,TRUE
In2S,P3,0.7106,11.521,11.518,23.564,FALSE
VS2,P-1,0.0157,11.546,11.554,23.728,FALSE
TeMoCl7O,P2_1/c,2.4777,11.649,12.613,27.543,FALSE
MoF2,P4/mbm,1.6484,11.662,11.676,28.921,FALSE
Ta3Br7,Pmna,1.2686,11.767,13.979,26.308,FALSE
MoBr2,P4/mbm,2.0481,11.929,11.933,28.916,FALSE
Al2Te,P-3,0.4587,11.935,11.935,23.381,TRUE
WBr2,P4/mbm,2.4212,11.956,11.961,28.793,FALSE
Al2Te,P-3,0.5597,12.02,12.02,23.564,TRUE
VSe2,P-1,0,12.037,12.039,23.732,FALSE
In2Se,P3,0.8607,12.047,12.047,23.381,TRUE
In2Se,P3,0.842,12.069,12.069,23.564,TRUE
S(IN)2,P-1,1.5517,12.139,12.486,20.502,FALSE
Tl2S,P3,1.4533,12.183,12.183,23.564,TRUE
MnBr3,P-3m1,0.4929,12.186,12.186,26.856,TRUE
Tl2S,P3,1.4621,12.211,12.211,23.381,TRUE
TaS2,P-1,0.1392,12.217,12.219,23.732,FALSE
NbS2,P-1,0.1528,12.257,12.259,23.733,FALSE
Ga2Te,P3,0.9965,12.307,12.307,23.381,TRUE
Ga2Te,P3,1.0172,12.318,12.318,23.564,TRUE
LiWCl6,P3,0.0743,12.322,12.322,22.449,TRUE
Na2UI6,P3m1,0.039,12.373,12.373,28.731,TRUE
GaBi,P-1,0.9453,12.593,14.018,31.667,FALSE
TaSe2,P-3,0.1592,12.648,12.649,23.612,FALSE
WI2,P4/mbm,1.7259,12.657,12.664,28.499,FALSE
NbSe2,P-1,0.0531,12.666,12.665,23.734,FALSE
MoI2,P4/mbm,1.3842,12.684,12.687,28.921,FALSE
Ta3I7,Pmna,0.9643,12.686,15.03,26.693,FALSE
Tl2Se,P3,1.2867,12.687,12.687,23.381,TRUE
Tl2Se,P3,1.2783,12.699,12.699,23.564,TRUE
CrI2,P4/mbm,0,12.766,12.769,28.916,FALSE
In2Te,P3,0.978,12.929,12.929,23.564,TRUE
In2Te,P3,0.9988,12.939,12.939,23.381,TRUE
MnI3,P-3m1,0.2581,12.995,12.995,26.856,TRUE
NbTe2,P-1,0,13.155,13.176,23.726,FALSE
VTe2,P-1,0,13.185,13.207,23.738,FALSE
Al2Te3,P-62m,0,13.201,13.201,20.011,TRUE
TaTe2,P-1,0,13.29,13.287,23.73,FALSE
Tl2Te,P3,1.2577,13.52,13.52,23.564,TRUE
Tl2Te,P3,1.2475,13.522,13.522,23.381,TRUE
AlBi,P-6m2,0,13.734,13.734,"20.0,""",TRUE
AlSb,P2_1/c,0,14.632,4.4158,17.307,FALSE
In2Te3,P321,0,20.064,20.064,20.011,TRUE
AgBi3,Pccm,0,22.286,5.5355,21.248,FALSE
GaAs,P-1,0.0362,27.264,25.505,29.713,FALSE
Sn3Bi4,P3m1,1.3944,27.42,27.363,20.011,FALSE
InP,P4/nmm,0,4.396,4.396,23.942,TRUE