Formula,Space Group,Band Gap,a,b,c,a=b
Nd2BC,C2/m,0,3.6137,7.374,23.428,FALSE
AsCl5,Pmmm,0,3.614,7.9323,23.758,FALSE
Ga4S3,Pmn2_1,1.3251,3.614,10.837,30.194,FALSE
AlS,P-1,1.8942,3.6141,5.2654,23.433,FALSE
VTe3,P2_1/m,0,3.6147,17.052,28.44,FALSE
GaCl3,Pm,3.2676,3.6148,10.075,23.582,FALSE
V2O5,Pmmn,2.4589,3.6151,11.433,24.289,FALSE
CF4,P4/mmm,3.3672,3.6151,3.6151,23.818,TRUE
CuBr2,P-4m2,0,3.6155,3.6155,23.53,TRUE
GaS,P-6m2,2.4777,3.6166,3.6166,24.64,TRUE
HfBrN,P-3m1,3.135,3.6168,3.6168,26.557,TRUE
Si3P4,C2,0.3326,3.6169,3.6169,28.161,TRUE
SnF2,P-6m2,2.375,3.6176,3.6175,23.838,TRUE
CuSe,P-1,0,3.6181,6.0436,25.315,FALSE
Os3S4,P2_1/m,0,3.6187,5.8179,28.107,FALSE
GaS,P-1,2.33,3.6187,10.98,25.608,FALSE
SN,Aem2,0,3.6188,3.6188,23.274,TRUE
P2Se3,P2_1/m,0.2403,3.6188,9.5569,24.893,FALSE
YbBrO,P4/nmm,0,3.619,3.619,26.066,TRUE
Er6Cl7,P-1,0,3.62,9.9978,29.195,FALSE
AsI5,Pmma,0,3.6202,20.329,23.858,FALSE
V2O5,P2_1/m,2.4338,3.6203,10.085,24.973,FALSE
LiH2N,P-42_1m,3.2009,3.6213,3.6213,23.369,TRUE
BTe,P3m1,0,3.6214,3.6214,21.25,TRUE
PdS,P3m1,0,3.6215,3.6215,21.231,TRUE
MgCl2,Pmma,4.5748,3.6219,6.2685,23.548,FALSE
CoS,P4/nmm,0,3.6222,3.6222,22.797,TRUE
ThC2,P4/mmm,0,3.6224,3.6224,22.685,TRUE
Al2FeS4,P-3m1,0,3.6225,3.6225,28.676,TRUE
V2ZnO6,C2/m,3.0406,3.6227,9.0976,23.778,FALSE
BaBi2,C2/m,0,3.6231,8.2599,24.98,FALSE
Bi2O3,Pmmn,2.4228,3.6243,12.76,21.157,FALSE
CrTe,P4/nmm,0,3.6247,3.6247,23.354,TRUE
SrN,Pmm2,0,3.6277,3.7298,27.111,FALSE
Gd2CF2,P-3m1,0.6981,3.6278,3.6278,25.028,TRUE
NbTe2,C2/m,0,3.6279,9.9132,24.076,FALSE
AlF3,Pmma,7.7803,3.628,5.6379,22.851,FALSE
CoTe2,P-3m1,0,3.629,3.629,22.656,TRUE
HgF2,C2/m,1.9868,3.6292,3.6261,22.739,FALSE
VTe2,C2/m,0,3.6293,9.7537,23.819,FALSE
SmClF,P4/nmm,0,3.6298,3.6298,26.012,TRUE
TiGe2,P4/nmm,0,3.6306,3.6243,25.781,FALSE
BSb,P4/nmm,0,3.6307,3.6307,23.942,TRUE
Y(CuO2)3,P1,0,3.6307,8.8584,24.58,FALSE
As2Pt,P2_1/m,0,3.6309,5.6743,24.51,FALSE
GeSe,Pmmn,1.5544,3.631,5.8773,21.81,FALSE
GaS,P-3m1,2.3015,3.6311,3.6311,24.623,TRUE
TaF5,Pmma,4.3385,3.6314,8.3604,23.558,FALSE
TeC,Pbcm,0.0312,3.6316,10.805,22.971,FALSE
TiP2,P-3m1,0,3.6318,3.6318,21.95,TRUE
TaI2,P-3m1,0,3.6325,3.6325,22.903,TRUE
NiAs2,P2_1/m,0,3.633,4.6361,24.512,FALSE
LuHCl,P-3m1,0,3.633,3.633,25.966,TRUE
MoO3,Pm,1.0952,3.633,3.8411,22.566,FALSE
TaTe2,C2/m,0,3.6334,9.8069,24.056,FALSE
VCl2,P-3m1,1.2962,3.6335,3.6335,22.665,TRUE
NdBr2,P4/mmm,0,3.6336,3.6336,23.775,TRUE
BeBr2,Pmma,3.3015,3.6338,5.9169,23.548,FALSE
Zr3Se2,P4/mmm,0,3.634,3.634,26.086,TRUE
CoC4,P-42m,0,3.6342,3.6342,22.924,TRUE
TmCl2,P-3m1,0,3.6344,3.6344,23.842,TRUE
SeCl,C2/m,1.5265,3.6344,8.4204,25.863,FALSE
GaS,P-1,2.0461,3.6351,5.2134,23.431,FALSE
GeSe2,P-3m1,0,3.6355,3.6355,23.314,TRUE
FeTe2,P-3m1,0,3.6359,3.6347,22.67,FALSE
NpF3,Pmmn,0.0536,3.6363,7.2715,24.494,FALSE
ZrBrN,Pmmn,1.736,3.6364,4.157,25.986,FALSE
AuS2,P-3m1,0,3.6384,3.6136,23.009,FALSE
ZrNCl,P-3m1,2.7286,3.6384,3.6384,26.31,TRUE
MgCl2,P-3m1,6.0688,3.6385,3.6385,22.746,TRUE
AgBr2,P-4m2,0,3.6393,3.6393,23.53,TRUE
AlN,P4/nmm,3.4793,3.6395,3.6395,23.942,TRUE
HfS2,P-3m1,1.3021,3.6396,3.6396,22.876,TRUE
PtS,P-3m1,0,3.6401,3.6401,23.105,TRUE
ZrO2,P6/mmm,0,3.6404,3.6404,23.425,TRUE
HgF2,P-3m1,1.9769,3.6411,3.6411,22.956,TRUE
Ga2NiS4,P-3m1,0,3.6412,3.6412,28.868,TRUE
CrBr2,C2/m,0.4479,3.6413,4.02,23.014,FALSE
CuBrO2,P222_1,0.4587,3.6414,7.1022,22.961,FALSE
AgS,P-1,0,3.6416,6.1335,25.306,FALSE
SbO2,P6/mmm,0,3.6416,3.6416,23.731,TRUE
SbF5,Pmma,1.9886,3.6423,8.5037,23.508,FALSE
SrF2,Pmma,5.3345,3.6436,6.8002,23.548,FALSE
VBr2O,Pmmm,0.4088,3.644,3.6826,23.593,FALSE
CuCClO,Pmn2_1,2.4835,3.6441,5.0224,27.29,FALSE
KF,P4/mmm,4.8533,3.6445,3.6445,"20.0,""",TRUE
MoCl2,C2/m,0.7849,3.6451,4.1669,23.057,FALSE
PuF3,Pmmn,0,3.6463,7.1915,24.89,FALSE
NiP,P-6m2,0,3.6463,3.647,"20.0,""",FALSE
Y2F5,P2_1/m,0.4461,3.6465,8.8819,26.436,FALSE
IrCl2,P-3m1,0,3.6468,3.6468,23.069,TRUE
Pr2BC,C2/m,0,3.6468,7.4112,23.476,FALSE
Sc2Br3,C2/m,0.5472,3.6479,9.4834,25.499,FALSE
As2S3,P-3m1,0.9493,3.6479,3.6479,27.395,TRUE
CaMg,P-3m1,0,3.6489,3.6489,28.784,TRUE
ScSi3Ni2,P4/nmm,0,3.6489,3.6489,29.534,TRUE
NiBr2,P-3m1,0.5054,3.6496,3.6496,22.803,TRUE
SN,Pc,0,3.6497,17.137,23.12,FALSE
OsCl2,P-3m1,1.4202,3.6498,3.6498,23.24,TRUE
SN,P4/nmm,0,3.6499,3.6499,21.297,TRUE
HfI,P-3m1,0,3.6507,3.6507,26.166,TRUE
Mn(AlS2)2,P3m1,0,3.6515,3.6515,29.143,TRUE
Ga2FeS4,P-3m1,0,3.6515,3.6515,29.103,TRUE
V2Te3,P2_1/m,0,3.6516,9.9888,23.989,FALSE
TcBr2,P-3m1,0,3.652,3.652,22.766,TRUE
CaMg,P3m1,0,3.6525,3.6525,34.509,TRUE
GeS,Pmn2_1,1.7197,3.6527,4.4621,22.677,FALSE
HfSi2,P4/nmm,0,3.6529,3.6531,25.781,FALSE
Ti2Te2P,P-3m1,0,3.6533,3.6533,26.277,TRUE
AlSnF5,Pmmm,0.0055,3.6537,8.064,23.703,FALSE
Bi2CO5,Pmm2,0,3.6541,4.7037,23.817,FALSE
VTe2,P-3m1,0,3.6547,3.6551,23.418,FALSE
ZrS3,Pmmn,1.1275,3.6547,5.1883,25.95,FALSE
SrPb2,P-3m1,0,3.6548,3.6548,24.664,TRUE
Sc7Br10,P-1,0,3.6548,16.309,26.847,FALSE
FeCl3,P1,0.6612,3.6553,9.162,25.609,FALSE
ZrP2,P-3m1,0,3.6557,3.6563,21.95,FALSE
PdN2,P-1,0.0321,3.6559,7.8364,25.863,FALSE
Ti2ZnO5,Pmmn,3.156,3.6559,11.979,26.991,FALSE
GeP,C2/m,1.7551,3.6564,10.882,24.939,FALSE
Zn2Ag2O5,Pmc2_1,0,3.6567,6.3156,29.044,FALSE
GeP,P-1,1.7485,3.6569,10.877,24.955,FALSE
WI2,C2/m,0,3.6572,7.2244,21.528,FALSE
Sr2Co,P4/mmm,0,3.6575,3.6575,25.017,TRUE
NbF5,Pmma,3.0548,3.658,8.4219,23.595,FALSE
LiFeP,P4/nmm,0,3.6581,3.6581,24.082,TRUE
BaTl(NiO3)2,Pm,0,3.659,3.6417,39.797,FALSE
KHCO3,P2_1,4.4708,3.659,5.6055,26.563,FALSE
P2Se3,P-3m1,0.4244,3.6595,3.6595,23.614,TRUE
HfP2,P-3m1,0,3.6596,3.6596,21.95,TRUE
AlCuF5,Pmmm,0,3.66,7.3325,22.829,FALSE
Cr3Se4,P-3m1,0,3.6603,3.6599,29.269,FALSE
Mn(SbS2)2,Pmc2_1,0,3.6604,10.938,28.995,FALSE
VHgO3,P-1,2.4189,3.661,9.9458,24.424,FALSE
CuSi2P3,Pm,0,3.6611,6.4501,26.743,FALSE
V2Te3,P2_1/m,0,3.6619,9.9915,24.161,FALSE
NiSe,P4/nmm,0,3.6629,3.6629,22.999,TRUE
InBrO,Pmmn,2.3891,3.6636,4.0995,25.978,FALSE
CuSe,P4/nmm,0,3.6637,3.6637,23.081,TRUE
HfAs2,P-3m1,0,3.6638,3.6638,21.95,TRUE
V2CoO6,C2/m,1.5327,3.6639,7.6456,24.947,FALSE
Ba2TlNi2O7,P4/mmm,0,3.664,3.6643,30.696,TRUE
UGe2,C2/m,0,3.664,5.2366,26.177,FALSE
TbN2,C222,0,3.6646,3.8714,24.923,FALSE
GeSe,P3m1,2.2646,3.6657,3.6657,21.529,TRUE
CuS,P3m1,0,3.6665,3.6665,20.492,TRUE
MnSbS2Cl,Pmc2_1,0.212,3.6665,9.9538,25.277,FALSE
CdO,P-6m2,0.8238,3.6674,3.6674,20.634,TRUE
Al2Zn2S5,P-3m1,1.0572,3.6675,3.6675,31.89,TRUE
Mn2ZnO5,Pmmn,0.1132,3.6679,11.717,26.432,FALSE
Al2Zn2S5,P-3m1,1.2347,3.6695,3.6695,31.894,TRUE
CdHClO,P3m1,2.5718,3.6695,3.6695,23.514,TRUE
Li2Br,Pmma,0,3.67,6.221,23.993,FALSE
AgClO2,P2_1/m,0.0131,3.6703,3.9507,29.636,FALSE
Sc5Br8,P2/m,0,3.6704,13.895,25.194,FALSE
Bi4C3,C2,0,3.6704,3.6704,27.835,TRUE
KV4O10,Amm2,0,3.6706,6.0116,28.291,FALSE
WCl2,C2/m,0.6214,3.671,4.2695,23.102,FALSE
V2CdO6,C2/m,2.706,3.671,9.4884,24.369,FALSE
ZnCl2,P-4m2,4.3187,3.6715,3.6715,22.75,TRUE
PtS,P3m1,0,3.6721,3.6721,21.231,TRUE
HfSiTe,P4/nmm,0,3.6721,3.6721,26.986,TRUE
KH(CN2)3,P-1,0.0571,3.6729,8.8266,28.112,FALSE
CdCN2,P3m1,0,3.6738,3.6738,23.302,TRUE
Al2Zn2S5,P-6m2,1.5795,3.6743,3.6743,31.887,TRUE
BaTl(CoO3)2,Pm,0,3.6745,3.6829,64.918,FALSE
NaTiCuS3,P2_1/m,0.322,3.6749,9.6604,26.9,FALSE
LiV2O5,Pmmn,0.707,3.675,11.327,27.002,FALSE
PdCl2,P-3m1,0.4072,3.6756,3.6756,23.007,TRUE
MgV2O6,C2/m,2.8618,3.6756,9.2929,24.197,FALSE
C,Cmmm,0,3.676,3.676,22.476,TRUE
ZrBrN,P-3m1,2.572,3.6761,3.6761,26.605,TRUE
ScBr2,P-6m2,0.1258,3.6762,3.6762,23.825,TRUE
CI2,P-6m2,0.1289,3.6762,3.6762,23.838,TRUE
Sb2C,Pmc2_1,0.1622,3.6765,10.142,25.607,FALSE
AgCl2,P-4m2,0,3.6768,3.6768,23.53,TRUE
V6O13,Pmma,0,3.6768,11.901,28.591,FALSE
AuSe,P2/m,1.2376,3.6768,6.2433,22.522,FALSE
LiBr,P4/mmm,4.6651,3.677,3.677,"20.0,""",TRUE
RbV4O10,Cmmm,0,3.6771,6.0266,27.908,FALSE
GaS,P-6m2,0.8716,3.6775,3.6775,24.094,TRUE
NdC2,P4/mmm,0,3.6781,3.6781,22.598,TRUE
HoS3,P4/nmm,0,3.6781,3.6781,29.088,TRUE
AsS,C2/m,0,3.6788,3.6788,23.297,TRUE
Ru3Se4,P2_1/m,0,3.6793,5.9975,28.104,FALSE
FeSe,P4/nmm,0,3.6795,3.6795,22.768,TRUE
CuCl2,P2_1/c,0.1137,3.6807,6.0337,21.524,FALSE
Li2Br,P-3m1,0,3.6813,3.6813,23.407,TRUE
Al2ZnS4,P3m1,0,3.6816,3.6816,29.011,TRUE
Al2S3,P1,2.1284,3.6816,6.8645,29.574,FALSE
ScI2,P4/mmm,0,3.6819,3.6819,23.801,TRUE
Al2ZnS4,P-3m1,1.6313,3.6819,3.6819,28.962,TRUE
Mn2Ga2S5,P-3m1,0,3.6824,3.6825,32.086,TRUE
Sn(NF)2,P2/m,2.1507,3.6824,6.8848,22.855,FALSE
CoSi3,P-6m2,0,3.683,3.683,24.981,TRUE
Ga2S3,P1,0.0323,3.683,6.6181,29.436,FALSE
VTe,P4/nmm,0,3.6832,3.6832,23.448,TRUE
Sr2Ir,P4/mmm,0,3.6836,3.6836,24.618,TRUE
WI5,Pmmm,0,3.6836,10.557,23.822,FALSE
TmClO,Pmmn,5.3508,3.6841,4.1126,25.828,FALSE
PtSe,P-3m1,0,3.6843,3.6843,23.678,TRUE
Se2Cl2O5,P4/mmm,0,3.6845,3.6845,28.317,TRUE
MnCl2,P-3m1,1.765,3.6846,3.6846,22.766,TRUE
BaTl(CoO3)2,P4mm,0,3.6861,3.6864,30.731,TRUE
Cr(GaS2)2,P-3m1,0,3.6861,3.7011,29.068,FALSE
AuCl2,P-4m2,0,3.6866,3.6866,23.53,TRUE
IrSe2,P-3m1,0,3.6873,3.6873,22.656,TRUE
HoN2,C222,0,3.6878,3.8439,24.927,FALSE
Zn2Ga2S5,P-3m1,0.9591,3.6879,3.6879,31.968,TRUE
ZrI,C2/m,0,3.6889,3.695,25.899,FALSE
NbTe2,P-3m1,0,3.6889,3.6889,23.682,TRUE
V2MoO8,Cmm2,1.7477,3.6891,9.671,22.114,FALSE
BeSn2,C2/m,0,3.6892,6.3796,23.148,FALSE
OsS,Cmme,0,3.6898,3.6898,23.662,TRUE
NiC2(SN)2,C2/m,0.2856,3.6901,5.5224,23.093,FALSE
GaS,P3m1,0.3183,3.6902,3.6902,21.25,TRUE
PbN,C2/m,0,3.6906,10.203,25.357,FALSE
ZrS2,P-3m1,1.1262,3.6909,3.6909,22.914,TRUE
SiAs2,Pmc2_1,1.3449,3.6911,10.316,26.188,FALSE
LuSn2,P4/mmm,0,3.692,3.692,23.779,TRUE
SmH2ClO2,P2_1/m,4.4649,3.6922,6.3494,25.7,FALSE
Al2ZnS4,P3m1,0,3.6925,3.6925,28.983,TRUE
Al2ZnS4,P3m1,0,3.6926,3.6926,28.997,TRUE
TaTe2,P-3m1,0,3.6928,3.6928,23.682,TRUE
Feb-02,P-3m1,0,3.693,3.693,22.999,TRUE
Al2Zn2S5,P3m1,0,3.6941,3.6941,32.118,TRUE
Zn2Ga2S5,P-6m2,0.9367,3.6941,3.6941,31.94,TRUE
V4ZnO10,Pmm2,0.9339,3.6947,11.438,23.474,FALSE
BeBi2,C2/m,0,3.6951,6.5605,24.98,FALSE
GeClF,P4/nmm,2.8711,3.6952,3.6952,25.063,TRUE
NbTe3,P2_1/m,0,3.6955,13.466,27.007,FALSE
TbMgNi,Pmma,0,3.6962,3.8343,27.134,FALSE
Al2Zn2S5,P3m1,0,3.6966,3.6966,32.167,TRUE
SrH2O3,Pmc2_1,3.0278,3.6966,5.9537,21.116,FALSE
PBr5,Pmmm,0,3.6969,8.4448,23.758,FALSE
GeSe2,P-4m2,0.6057,3.6969,3.6969,22.855,TRUE
Hf3Te2,P4/mmm,0,3.697,3.697,26.086,TRUE
Sc2Br5,P2_1/m,0.2209,3.6975,15.001,26.524,FALSE
TeRhCl,P2_1/m,1.1188,3.6975,6.6539,22.711,FALSE
Be2As,Pmmn,0,3.6976,3.6363,22.829,FALSE
Pr2F5,P2_1/m,0.8202,3.6976,12.716,26.349,FALSE
SnS2,P-3m1,1.5738,3.6977,3.6977,22.955,TRUE
Al2Se3,P-3m1,0.7676,3.6978,3.6978,26.456,TRUE
As4I,P2/m,0,3.6986,11.271,33.789,FALSE
YS3,P4/nmm,0,3.6988,3.6987,29.216,TRUE
Mn(CuCl2)2,Pmm2,0.9825,3.699,7.8616,22.051,FALSE
NbI5,Pmma,0,3.6993,20.131,23.595,FALSE
La2C,P-3m1,0,3.6995,3.6995,22.695,TRUE
NbI2,P-3m1,0,3.6996,3.6996,22.903,TRUE
HfI2,P2_1/m,0.6317,3.7002,6.7815,24.412,FALSE
Ca2Hg,P4/mmm,0,3.7006,3.7006,23.983,TRUE
As9I2,P2_1/m,0,3.7008,11.345,35.052,FALSE
VCl2O,Pmma,1.6461,3.7012,6.9409,23.301,FALSE
SiAs,C2/m,1.8965,3.7013,10.86,24.945,FALSE
AgCl,Pmma,0.9837,3.7015,3.769,23.133,FALSE
Ba2Tl2Co3O10,P1,0,3.7016,3.7028,61.366,FALSE
CoBr2,P-3m1,0.0431,3.7017,3.7017,22.858,TRUE
ErHCl,P-3m1,0,3.702,3.702,26.04,TRUE
HfIN,P-3m1,2.0543,3.7022,3.7022,27.002,TRUE
TiBr2,P-3m1,0,3.7024,3.7024,23.269,TRUE
AlCrF5,Pmmm,0,3.7026,7.6099,22.945,FALSE
Zn(GaS2)2,P-3m1,1.1143,3.7035,3.7035,29.037,TRUE
HfI2,P-3m1,0,3.7038,3.7038,23.196,TRUE
ZrSiTe,P4/nmm,0,3.7041,3.7041,26.981,TRUE
Be2P,P-3m1,0,3.7043,3.7043,23.013,TRUE
MgW2O5,Amm2,0.5204,3.7046,5.8722,23.453,FALSE
Mn(GaS2)2,P3m1,0,3.7048,3.7048,29.123,TRUE
As,Pmna,0.6292,3.705,4.6901,22.423,FALSE
B,Pmma,0,3.7052,1.6032,22.343,FALSE
Mg(AlS2)2,P-3m1,2.1091,3.7052,3.7052,29.038,TRUE
Ba2Ni3O7,P2/m,0,3.7054,3.7736,29.493,FALSE
AlF,P4/nmm,1.3502,3.7058,3.7058,19.742,TRUE
LuSi2,P4/mmm,0,3.7061,3.7061,23.779,TRUE
Na(NO)2,P1,0,3.7061,3.7228,27.416,FALSE
Bi2O3,Pm,2.3691,3.7061,5.4796,21.906,FALSE
ScSe,P4/nmm,0,3.7062,3.7062,23.289,TRUE
AlNiF5,Pmmm,0.1657,3.7067,7.4475,23.702,FALSE
CoSe,P4/nmm,0,3.7068,3.7068,22.797,TRUE
TaNi2Te3,P2_1/m,0,3.7069,10.701,23.947,FALSE
SrSb,Pmm2,0,3.7075,6.1078,27.111,FALSE
LuPb2,P4/mmm,0,3.7079,3.7079,23.779,TRUE
NaV2O5,P2_1/m,0.6738,3.7083,9.9528,26.592,FALSE
ZrSi2,P4/nmm,0,3.7101,3.7045,25.781,FALSE
KH2N,Pmmn,2.2846,3.7101,4.4999,24.611,FALSE
Nb2SiTe4,Pm,0,3.7103,6.6956,25.318,FALSE
PdSe2,P-3m1,0.5543,3.7105,3.7105,22.725,TRUE
MgSb,Pmm2,0,3.711,5.1301,26.78,FALSE
WO3,Pmm2,1.3941,3.7115,3.8018,22.234,FALSE
YCl2,P-6m2,0.3954,3.7119,3.7119,23.825,TRUE
SnP2,Pmc2_1,0.8106,3.7126,10.826,26.149,FALSE
As9F2,P2_1/m,0,3.7131,11.069,34.931,FALSE
ReBr2,P-3m1,0,3.714,3.714,22.766,TRUE
HfSe5,Pmmn,0.2049,3.7143,12.459,25.378,FALSE
As4F,P2/m,0,3.7147,11.041,33.705,FALSE
Sr2Rh,P4/mmm,0,3.7155,3.7155,22.883,TRUE
LiCoAs,P4/nmm,0,3.7155,3.7155,24.023,TRUE
Cr2O5,Pmmn,0.6681,3.7171,10.62,24.133,FALSE
Ca2Cd,P4/mmm,0,3.7175,3.7175,23.983,TRUE
PBr5,Pmma,0,3.7175,14.609,23.858,FALSE
MoF5,Pmmm,0.8261,3.7177,4.3933,23.786,FALSE
TaF5,Pmmm,3.4398,3.7179,4.3943,23.745,FALSE
NiSe,P-3m1,0,3.7186,3.7186,23.678,TRUE
ErClO,Pmmn,5.299,3.7192,4.1264,25.879,FALSE
As4Cl,P2/m,0,3.7194,11.243,33.72,FALSE
HoS,P4mm,0,3.7196,3.7196,20.412,TRUE
CdClO,P3m1,0.1529,3.7196,3.7196,22.299,TRUE
TbCl,P-3m1,0,3.7199,3.7199,26.291,TRUE
AgSe,P2/m,0.7203,3.7199,5.5815,22.59,FALSE
LiV2O5,Pmmn,0.2567,3.7205,11.193,24.32,FALSE
VH2O3,P2/c,1.5981,3.7219,6.1557,23.449,FALSE
MgV4O10,Pmm2,0.8696,3.722,11.269,24.168,FALSE
H2PbO2,Pmn2_1,3.0542,3.7226,8.6139,21.458,FALSE
PbF2,P-6m2,3.5462,3.7228,3.7228,23.838,TRUE
Zn(GaS2)2,P3m1,0,3.7233,3.7233,29.128,TRUE
Ta2Te5Pd3,Pmn2_1,0,3.7233,18.771,24.448,FALSE
Zn(GaS2)2,P3m1,0,3.7234,3.7234,29.109,TRUE
CuF,Cmme,1.4324,3.7235,3.7235,23.904,TRUE
TaTe3,P2_1/m,0,3.7237,13.452,27.009,FALSE
TmClO,P-3m1,5.152,3.7244,3.7244,26.277,TRUE
SbF5,Pmmm,0.8367,3.7246,4.5344,23.533,FALSE
As9Cl2,P2_1/m,0,3.7258,11.278,34.948,FALSE
NbTe3,P2_1/m,0,3.7259,17.276,27.879,FALSE
WF5,Pmmm,1.9443,3.7268,4.3907,23.822,FALSE
ReTe2,P-3m1,0,3.7269,3.7269,22.641,TRUE
Ba2Co3O7,Pmmm,0,3.7271,3.7594,29.71,FALSE
CrTe2,P2_1/m,0,3.7276,6.372,24.193,FALSE
MnSbS2Br,P2/m,0.2462,3.7293,10.075,24.046,FALSE
Er6Br7,P-1,0,3.7298,10.389,29.197,FALSE
NbNiTe5,Pmma,0,3.7299,15.148,24.601,FALSE
YCl,P-3m1,0,3.73,3.73,26.241,TRUE
Al2S5,P1,2.2099,3.7302,7.2339,24.091,FALSE
TaI5,Pmma,0.0085,3.7307,20.378,23.595,FALSE
MnBiS2Cl,Pmc2_1,0.2302,3.7311,10.612,25.44,FALSE
Ru3Se4,P-3m1,0,3.7312,3.7313,27.542,TRUE
SeBr,C2/m,1.3647,3.7312,8.7099,25.874,FALSE
NbTe2,Pmmm,0,3.7317,2.9732,23.436,FALSE
V2PbO6,C2/m,2.2522,3.732,8.1537,29.526,FALSE
Ba2Ce,Pmma,0,3.7323,4.3879,27.931,FALSE
TiI2,P2_1/m,0.1431,3.7326,6.6337,24.415,FALSE
TiI2,P2_1/m,0.1437,3.7328,6.6363,24.43,FALSE
TlF,P4/nmm,3.5771,3.7332,3.7332,23.116,TRUE
MnAlGe,P4/nmm,0,3.7344,3.7344,23.496,TRUE
HfGe2,P4/nmm,0,3.7349,3.7619,25.655,FALSE
PtSe2,P-3m1,1.3516,3.7357,3.7357,22.613,TRUE
ScSe3,P4mm,0,3.7359,3.7366,24.447,FALSE
TaNiTe5,Pmma,0,3.736,15.192,24.599,FALSE
HfSe3,Pmmn,0.3603,3.7371,5.4442,26.192,FALSE
BSb,P-6m2,0.2189,3.7375,3.7375,20,TRUE
ThCl2,P-6m2,0.028,3.7376,3.7376,24.529,TRUE
BaTlCuO4,P4/mmm,0,3.7377,3.7377,37.615,TRUE
C3N,P2_1,0,3.738,6.5206,20.766,FALSE
LuBrO,P4/nmm,4.4857,3.7386,3.7386,25.518,TRUE
Np(OF)2,P2/m,0,3.7395,4.3535,23.246,FALSE
ZrSe5,Pmmn,0.2167,3.7395,12.505,25.297,FALSE
Sc2Si,P-3m1,0,3.7399,3.7399,22.695,TRUE
TlN,P-6m2,0.0616,3.74,3.74,"20.0,""",TRUE
MnTe2,P-3m1,0,3.7414,3.7413,22.641,TRUE
As4Br,P2/m,0,3.7416,11.307,33.744,FALSE
CoTe,P4/nmm,0,3.7421,3.7421,22.797,TRUE
Ti3H2O7,P1,2.9741,3.7423,9.4355,27.635,FALSE
TaTe3,P2_1/m,0,3.7428,17.32,28.437,FALSE
BaO2,P4/mmm,2.6928,3.743,3.743,21.519,TRUE
As9Br2,P2_1/m,0,3.7431,11.351,34.954,FALSE
SnS,P3m1,2.3127,3.7435,3.7435,21.478,TRUE
Mg3C,P4mm,0.1899,3.7441,3.7461,22.353,FALSE
V3(HO2)4,C2/m,0,3.7443,9.0595,25.718,FALSE
ZrBrO,P-3m1,0,3.7446,3.7446,26.313,TRUE
NbF5,Pmmm,2.2158,3.7455,4.4305,23.745,FALSE
RuSe,Cmme,0,3.7468,3.7468,23.662,TRUE
PtN2,Pmmm,0,3.747,3.1824,23.396,FALSE
CaClF,P4/nmm,6.1108,3.7474,3.7474,25.755,TRUE
N2O3,P2_1,0,3.748,6.9851,22.221,FALSE
TaTe2,Pmmm,0,3.7481,2.9837,23.426,FALSE
NiTe,P3m1,0,3.7486,3.7486,21.231,TRUE
Ga2Se3,P-3m1,0,3.7487,3.7487,26.456,TRUE
PdSe,P3m1,0,3.7489,3.7489,20.298,TRUE
Gd2CCl2,P-3m1,0.4931,3.7492,3.7492,26.259,TRUE
Ga2S5,P1,1.8593,3.7495,7.3703,24.071,FALSE
Zn2Ga2S5,P3m1,0,3.7507,3.7507,32.214,TRUE
PdF2,Pmna,0.839,3.7509,5.6876,22.605,FALSE
CdF2,P-4m2,3.855,3.751,3.751,22.741,TRUE
Zn2Ga2S5,P3m1,0,3.7516,3.7516,32.258,TRUE
MoO3,P2_1/m,1.5068,3.7516,3.8881,26.303,FALSE
KMnP,P4/nmm,0,3.7517,3.7517,26.345,TRUE
PtCl2,P-3m1,0.4677,3.7521,3.7521,23.007,TRUE
AgSe2,P-3m1,0,3.7523,3.7438,23.009,FALSE
TaI5,Pmmm,0,3.7531,10.827,23.742,FALSE
Ba2Co,P4/mmm,0,3.7533,3.7533,22.883,TRUE
ZrIN,P-3m1,1.832,3.7534,3.7534,27.015,TRUE
RuS,Cmme,0,3.7544,3.7544,23.662,TRUE
Al4Se3,Pmn2_1,0.8717,3.7554,11.399,30.194,FALSE
TiTe3,P2_1/m,0,3.7555,5.9544,26.856,FALSE
TiI2,P-6m2,0.6795,3.7555,3.7555,23.44,TRUE
Ca5Sc,P1,0,3.7556,7.1878,25.352,FALSE
Tl2S5,C2/m,1.1932,3.7559,7.9935,24.115,FALSE
Ti3H2O7,P-1,2.9322,3.756,9.4435,28.665,FALSE
SmS3,P4/nmm,0,3.7565,3.7565,29.325,TRUE
TiAs2,P-3m1,0,3.7565,3.7565,21.95,TRUE
LiFeAs,P4/nmm,0,3.7575,3.7575,24.043,TRUE
SnS,Pmmn,1.8758,3.7577,5.7843,22.225,FALSE
P2Pt,P-1,0,3.7579,6.3681,24.985,FALSE
MoS,P4/nmm,0,3.758,3.758,23.354,TRUE
KMg,P2_1/m,0,3.7584,3.5999,25.9,FALSE
TeO3,P-6m2,0.8623,3.7584,3.7584,23.591,TRUE
AuSe,C2/m,0,3.7586,6.5023,25.208,FALSE
Ti3H2O7,Pm,2.8306,3.7587,9.3399,28.631,FALSE
RuBr2,P-3m1,1.1752,3.7589,3.7589,23.24,TRUE
SnS2,P-4m2,1.4874,3.7589,3.7589,22.855,TRUE
CrBr5,P2/c,0,3.7592,16.241,23.524,FALSE
NiCl2,Pmna,0.2428,3.7592,6.1083,22.605,FALSE
NbBi7O13,P1,0,3.7593,3.9347,60.856,FALSE
AuBr,P-3m1,0.078,3.7594,3.7594,23.814,TRUE
BaCuSbO5,P4mm,0,3.7596,3.7585,25.768,FALSE
In2S5,C2/m,1.2793,3.7606,7.7645,24.139,FALSE
SrBi,Pmm2,0,3.7609,6.2078,27.111,FALSE
GeAs2,Pmc2_1,1.1962,3.7614,10.563,26.149,FALSE
LiCu2F5,Pmm2,0,3.7619,10.514,21.611,FALSE
GeSe,Pbcm,0.3513,3.7621,10.889,22.971,FALSE
AgF2,P2_1/c,0,3.7622,5.8791,21.478,FALSE
TmBrO,Pmmn,4.6557,3.7624,4.1102,26.114,FALSE
KH3C2O3,P-1,4.6766,3.7624,5.5705,28.872,FALSE
BiB,P4/nmm,0,3.7629,3.7629,23.942,TRUE
RhBr2,P-3m1,0,3.763,3.763,23.069,TRUE
ZrI2,P2_1/m,0.4323,3.7632,6.886,24.589,FALSE
TmBrO,P4/nmm,4.5451,3.7633,3.7633,25.584,TRUE
TiTe3,P2_1/m,0,3.7639,5.9605,25.93,FALSE
CuGe2P3,Pm,0,3.7642,6.6533,27.099,FALSE
WS,P4/nmm,0,3.7644,3.7644,23.354,TRUE
Br5N,Pmma,0,3.766,12.202,23.858,FALSE
Ba2Mn3Tl2O10,P1,0,3.7665,3.7713,39.991,FALSE
NiS,P4/nmm,0,3.7667,3.7666,22.999,TRUE
EuAs2,Pm,0,3.7673,4.9233,23.172,FALSE
CaF2,C2/m,6.982,3.7677,3.7674,24.529,TRUE
Zr3Te2,P4/mmm,0,3.7679,3.7679,26.086,TRUE
CuSbS2,Pmc2_1,0.3733,3.768,6.12,25.433,FALSE
HgO,P-6m2,0.2519,3.769,3.769,20.634,TRUE
Zn3(GaS3)2,P3m1,0,3.7702,3.7702,35.347,TRUE
Ba2Mn2TlO7,P4/mmm,0,3.7703,3.7703,30.196,TRUE
ZrIN,Pmmn,1.3414,3.7704,4.1496,26.353,FALSE
HfSe2,P-3m1,0.6556,3.7708,3.7708,23.15,TRUE
Y2Mn2S2O5,P4/mmm,0.0028,3.771,3.7735,29.432,FALSE
Ti3H2O7,Pm,2.8388,3.7711,9.3598,29.381,FALSE
Sr2N,Pmmn,0,3.7712,5.3031,23.617,FALSE
NiTe2,P-3m1,0,3.7719,3.7719,22.594,TRUE
AuSe2,P-3m1,0,3.772,3.7716,23.009,FALSE
ReBiO4,Pmma,0,3.7721,5.6881,29.474,FALSE
Te2Rh,P-3m1,0,3.7722,3.7722,22.756,TRUE
ZnBr2,P-3m1,3.4767,3.7722,3.7722,23.056,TRUE
DyCl3,Pmmn,3.8934,3.7723,8.4704,23.944,FALSE
Hf2CuGe4,P4/nmm,0,3.7727,3.7779,34.721,FALSE
Ca5Tm,P1,0,3.773,7.2651,25.479,FALSE
N2O3,P1,0,3.7731,3.6395,24.536,FALSE
CuCl,P-3m1,1.3824,3.7733,3.7733,23.814,TRUE
CaV4O10,Pmm2,0.5673,3.7738,10.999,23.807,FALSE
As2Se3,P2_1/m,0.7142,3.7738,9.6133,25.922,FALSE
PbC,P3m1,0,3.7746,3.7746,20.769,TRUE
NbI5,Pmmm,0,3.7748,10.622,23.745,FALSE
Ba2Mn3O7,Pmm2,0,3.7754,3.8165,29.284,FALSE
LaBe5,Cm,0,3.7755,3.7506,25.338,FALSE
Te2Ru,P-3m1,0,3.7755,3.7755,22.67,TRUE
SbClO,P4/nmm,1.9966,3.7759,3.7759,25.241,TRUE
VAg(HO2)2,P2_1/m,2.1941,3.7767,6.324,28.244,FALSE
TbH2Br,P-3m1,1.8569,3.7771,3.7771,27.126,TRUE
ZrI2,P-3m1,0,3.7775,3.7775,22.995,TRUE
ZrGe2,P4/nmm,0,3.7775,3.7798,25.781,FALSE
LiCu3F10,Pc,0,3.7777,14.255,28.639,FALSE
AlSe,P-6m2,1.9297,3.7786,3.7786,25.019,TRUE
CI2,P-3m1,1.3467,3.7787,3.7787,23.732,TRUE
YI2,P4/mmm,0,3.7788,3.7788,23.801,TRUE
GaN,P4/nmm,1.328,3.7795,3.7795,23.942,TRUE
Ca5Ce,Cm,0,3.7796,7.3902,25.533,FALSE
Ba2Cr3O7,Pmm2,0,3.78,3.8123,29.451,FALSE
ZrGeTe,P4/nmm,0,3.7803,3.7803,26.789,TRUE