Formula,Space Group,Band Gap,a,b,c,a=b
NbOF2,Pmmm,0,3.4009,3.8967,22.529,FALSE
CrAgSe2,P3m1,0,3.4012,3.4012,26.884,TRUE
Na2F,P-3m1,0,3.402,3.402,23.407,TRUE
Mg(HO)2,P3m1,4.0147,3.402,3.402,22.817,TRUE
NF3,P-6m2,0.3325,3.4027,3.4027,24.623,TRUE
Ta2PdSe6,C2/m,0.0795,3.4028,9.7378,23.91,FALSE
P4Br,P2/m,0,3.403,10.408,33.812,FALSE
YF2,P-6m2,1.1731,3.4036,3.4036,23.825,TRUE
TaS3,P2_1/m,0.1285,3.4045,11.452,27.012,FALSE
BaTi2TlO6,Pm,0,3.4048,3.4651,62.946,FALSE
Sb6Au,Pmn2_1,0,3.4053,11.879,29.06,FALSE
TeN,Cm,0.3381,3.4061,3.4061,23.264,TRUE
HfBr2,P-3m1,0,3.4072,3.4072,22.995,TRUE
ZrN2,P-3m1,0,3.4072,3.4072,21.95,TRUE
ZrCl2,P-6m2,1.6073,3.4078,3.4078,23.536,TRUE
ScBi2,C222,0,3.4091,3.4757,24.904,FALSE
DyF3,Pmmn,7.2932,3.4094,6.9103,23.944,FALSE
OsS2,P-3m1,0,3.4106,3.4106,22.67,TRUE
SbO2,P-3m1,0,3.4106,3.4106,21.903,TRUE
U(HO2)2,Pmna,1.9659,3.4106,9.2817,25.634,FALSE
MoF2,C2/m,2.6526,3.4111,3.9551,22.98,FALSE
TiS3,Pmmn,0.2755,3.412,5.0266,25.693,FALSE
Pd(NCl)2,P1,0.4789,3.4127,4.4001,24.441,FALSE
Nb2Se,P4/nmm,0,3.413,3.413,27.221,TRUE
YbF3,Pmmn,0,3.413,6.4197,23.788,FALSE
PdN2,P4/mmm,0.0035,3.4131,3.4131,23.53,TRUE
CaF2,Pmma,5.5943,3.4136,6.2606,23.548,FALSE
TiS2,P-3m1,0.0262,3.4142,3.4142,22.873,TRUE
NbS3,P2_1/m,0,3.4148,11.479,27.014,FALSE
CaMg2,Pmmn,0,3.4151,5.5108,27.283,FALSE
SO3,P-6m2,0.4624,3.4152,3.4152,23.59,TRUE
LuBi2,C222,0,3.4159,3.5087,25.031,FALSE
CuS,P-1,0,3.4164,5.8039,25.294,FALSE
HfBr2,P2_1/m,0.858,3.4167,6.3694,24.412,FALSE
Li2BiO3,P2/m,0,3.4171,4.1701,26.84,FALSE
U(OF)2,P2/m,2.0707,3.4172,4.0664,22.481,FALSE
PCl5,Pmma,0.0013,3.4187,12.266,23.858,FALSE
HfBr2,P2_1/m,0.8581,3.4199,6.3721,24.428,FALSE
CuF2,P2_1/c,0.4618,3.4203,5.2543,21.524,FALSE
ErBi2,C222,0,3.4211,3.5394,24.897,FALSE
Br5N,P2,0,3.4219,8.2739,23.758,FALSE
Be3Sn,Pmm2,0,3.4219,2.7876,22.353,FALSE
MgBi,Pmm2,0,3.423,5.4512,27.111,FALSE
Ca(SnN)2,P-4m2,0,3.4237,3.4237,25.574,TRUE
SbC,C2/m,0.6057,3.4239,9.7237,24.731,FALSE
HoBi2,C222,0,3.424,3.548,24.927,FALSE
SbC,P-1,0.4899,3.4246,9.7256,25.217,FALSE
Ca(InN)2,P-3m1,0,3.4248,3.426,25.268,FALSE
YF3,Pmmn,7.1079,3.4248,6.9422,24.855,FALSE
YbP2,Pmm2,0.0016,3.4257,4.76,22.994,FALSE
Zn2SnN2,C2/m,0.082,3.4263,6.1904,25.661,FALSE
TcCl2,P-3m1,0,3.427,3.427,23.003,TRUE
Nb2Se3,P2_1/m,0,3.427,9.9205,24.165,FALSE
Nb2Se3,P2_1/m,0.0115,3.4281,9.9202,23.767,FALSE
NaSnN,P3m1,0.3869,3.4281,3.4281,22.572,TRUE
TmBi2,C222,0,3.4288,3.5402,24.898,FALSE
TiBr2,P2_1/m,0.2561,3.4288,6.1801,24.425,FALSE
BePb2,P-3m1,0,3.4289,3.4289,24.664,TRUE
BiO2,P2_1/m,0.6085,3.4289,11.147,22.775,FALSE
SnN,C2/m,0.2927,3.4292,10.768,24.743,FALSE
Ta4Co2PdSe12,C2/m,0.0066,3.4298,18.309,25.291,FALSE
Ca(BiO2)4,Pm,0.7444,3.4308,9.6135,24.927,FALSE
InN5,Pmc2_1,0,3.4309,5.8274,26.806,FALSE
TiBr2,P2_1/m,0.2584,3.431,6.1779,24.411,FALSE
TiSCl,Pmmn,0,3.4314,4.8215,25.083,FALSE
Ni3Te4,P2/m,0,3.4316,6.4463,25.046,FALSE
SnN,C2/m,0.238,3.4325,10.767,25.231,FALSE
Sc2CCl2,P-3m1,0.8565,3.4325,3.4325,25.805,TRUE
Ta2NiS5,Pmmn,0,3.4326,15.207,24.135,FALSE
LiCl,P4/mmm,5.334,3.4326,3.4326,"20.0,""",TRUE
TbF3,Pmmn,7.2713,3.4338,6.949,23.98,FALSE
Cr3S4,P-3m1,0,3.4345,3.4369,29.269,FALSE
LiMn5O5F,P3m1,0,3.4353,3.4354,35.757,TRUE
TeN,C2/m,0,3.4353,3.4353,23.436,TRUE
N2O3,P1,1.4348,3.4369,5.0528,22.271,FALSE
CuCl,Pmma,0.6149,3.4371,3.3484,23.042,FALSE
Zn2W2O5,Pm,0,3.4378,5.0786,24.138,FALSE
CuO2F,P222_1,0.8411,3.4383,6.441,21.25,FALSE
Sb4C3,C2,0,3.4387,3.4387,28.085,TRUE
BaSn2,P-3m1,0,3.4392,3.4392,24.726,TRUE
CuSe2,P-3m1,0,3.4395,3.4705,23.009,FALSE
B2Se5,P-1,0.7211,3.4401,7.4502,24.137,FALSE
CdO2,P-3m1,0.0449,3.4403,3.4403,22.026,TRUE
ZrCl,P-3m1,0,3.4408,3.4471,25.871,FALSE
TiO2,P6/mmm,0,3.4408,3.4408,23.25,TRUE
TiAgSe2,P3m1,0,3.4414,3.4414,25.583,TRUE
B2Se5,C2/m,1.0977,3.4422,7.3071,24.144,FALSE
AgN6,Pmn2_1,0,3.4424,9.5991,29.06,FALSE
TaBr5,Pmma,0.0792,3.4429,18.731,23.595,FALSE
BiO2,Pmc2_1,0.3655,3.444,10.543,30.972,FALSE
BrN4,P2/m,0,3.4442,9.4472,33.915,FALSE
DyBi2,C222,0,3.4444,3.5539,24.915,FALSE
CrS,P4/nmm,0,3.4451,3.4451,23.354,TRUE
CrCl2,C2/m,0.6023,3.4454,3.8491,23.244,FALSE
CaSn2,P-3m1,0,3.4467,3.4467,24.664,TRUE
Co(HO)2,P3m1,2.4006,3.447,3.447,22.796,TRUE
NbBr5,Pmma,0.0532,3.4475,18.878,23.595,FALSE
LiMn7O7F,P3m1,0,3.45,3.45,60.789,TRUE
Be3Pb,Pmm2,0,3.4512,2.8752,22.353,FALSE
P2O3,Pm,1.2858,3.4517,5.7317,22.195,FALSE
TbBi2,C222,0,3.452,3.5615,24.923,FALSE
NiCl2,P-3m1,0.8106,3.452,3.452,22.613,TRUE
ZrNCl,P-3m1,3.0509,3.452,3.452,28.24,TRUE
LaBi2,C222,0,3.4526,3.5477,24.904,FALSE
PCl5,Pmmm,0,3.4531,7.8377,23.758,FALSE
GeS2,P-3m1,0.7157,3.4531,3.4531,23.192,TRUE
Ca2Co,P4/mmm,0,3.4548,3.4548,22.883,TRUE
ZrNCl,P3m1,3.1782,3.4548,3.4548,22.45,TRUE
CeGe5,Pmmm,0,3.4551,6.3314,22.763,FALSE
Ca(BiO2)4,Pm,0.2554,3.4554,10.524,25.552,FALSE
VBrO,Pmmn,1.4633,3.456,3.8341,25.593,FALSE
ScHO2,P1,2.1697,3.457,3.8107,25.762,FALSE
CrSe2,P-3m1,0,3.4572,3.4567,22.911,FALSE
WF2,C2/m,1.3461,3.4573,4.0994,22.945,FALSE
IrC3,P-6m2,0,3.4577,3.4577,24.981,TRUE
Hg,P6/mmm,1.5473,3.4582,3.5066,"20.0,""",FALSE
AuO2,P-1,0,3.4584,5.5547,21.952,FALSE
In2O3,Pmn2_1,1.5267,3.4587,6.4217,25.735,FALSE
HfO2,P6/mmm,0,3.459,3.459,23.425,TRUE
TeC,Pmmn,0,3.4617,4.5771,18.25,FALSE
MgBi2,Pmma,0,3.4624,5.8317,27.515,FALSE
LuH2ClO2,P2_1/m,4.2684,3.4627,6.1591,25.356,FALSE
Pb2O,Cm,0.0618,3.4631,3.4556,22.806,FALSE
HfBr,C2/m,0.0257,3.4632,3.4728,25.901,FALSE
Fe3Se4,C2/m,0,3.4653,3.499,28.87,FALSE
YBi2,C222,0,3.4653,3.5738,24.904,FALSE
SiP2,Pmc2_1,1.5367,3.4653,10.243,25.607,FALSE
TaNi2TeSe,Pmma,0,3.4664,6.5709,25.061,FALSE
Hf3S2,P4/mmm,0,3.4669,3.4679,26.086,FALSE
AlCl,P4mm,0,3.467,3.467,22.485,TRUE
RhC3,P-6m2,0,3.467,3.467,24.981,TRUE
SrO2,P4/mmm,2.9398,3.467,3.467,21.519,TRUE
BiO2,P-1,0.3524,3.4677,11.741,23.608,FALSE
CuF,P-6m2,0,3.4678,3.4678,20.195,TRUE
ScCl,P-3m1,0,3.4684,3.4684,25.8,TRUE
CuCl2,P-4m2,0,3.4685,3.4685,23.53,TRUE
YMg,P-3m1,0,3.4686,3.4686,28.588,TRUE
Er6F7,P-1,0,3.4687,6.8117,29.206,FALSE
P,P2_1/m,0.1078,3.4688,4.1806,23.344,FALSE
NdSi5,Pmmm,0,3.4691,6.53,23.414,FALSE
ReCl2,P-3m1,0,3.4695,3.4695,23.003,TRUE
RuSe2,P-3m1,0,3.4705,3.4705,22.67,TRUE
TaFeTe3,P2_1/m,0,3.4708,10.373,24.499,FALSE
MnSe2,P-3m1,0,3.4716,3.4716,22.641,TRUE
AsF5,Pmmm,0,3.4726,4.7076,23.758,FALSE
TaSe2,P-6m2,0,3.4732,3.4732,23.356,TRUE
YGe5,Pmmm,0,3.4736,6.3381,23.46,FALSE
CuBr2,C2/m,0,3.4752,3.9883,22.997,FALSE
AsF5,Pmma,0.4384,3.4771,8.486,23.858,FALSE
RhS2,P-3m1,0,3.4776,3.4776,22.058,TRUE
NbIrS4,P2/m,0,3.4784,5.5611,23.045,FALSE
Ta2Te,P4/nmm,0,3.4786,3.4786,27.221,TRUE
P2S3,P-3m1,0.6193,3.4788,3.4788,27.395,TRUE
CuSe,P2/m,0.3567,3.4798,4.9692,22.6,FALSE
Li2Cl,P-3m1,0,3.4805,3.4805,23.407,TRUE
Fe3Se4,P2_1/m,0,3.4807,5.7622,28.105,FALSE
Te3N2,P-3m1,0,3.481,3.481,27.04,TRUE
B3Rh,P-6m2,0,3.4812,3.4812,25.13,TRUE
Ca2Ir,P4/mmm,0,3.4812,3.4812,24.358,TRUE
GaF,P4/nmm,2.9566,3.4813,3.5038,23.633,FALSE
YMg2,Pmmn,0,3.4846,5.3034,26.659,FALSE
CaBi2,C2/m,0,3.4849,7.0455,24.98,FALSE
CaSb,Pmm2,0,3.485,5.7725,27.111,FALSE
Ca2Rh,P4/mmm,0,3.4855,3.4855,22.883,TRUE
CoCl2,P-3m1,0.1097,3.4858,3.4858,22.668,TRUE
Nb2Te3,C2/m,0,3.4862,10.566,24.972,FALSE
ZnW2O5,Amm2,1.1627,3.4864,6.1273,23.561,FALSE
FeCl2,P-3m1,0,3.4874,3.4874,22.803,TRUE
Ta2Te3,C2/m,0,3.4876,10.428,24.966,FALSE
Tl3Fe2,P4/mmm,0,3.4878,3.4878,25.544,TRUE
Sc5NCl8,P2/m,0,3.4888,11.915,25.52,FALSE
Tb5F8,P2/m,0,3.4894,11.202,26.187,FALSE
Bi6Au,Pmn2_1,0,3.4905,11.18,29.06,FALSE
TaBr5,Pmmm,0,3.4905,9.8751,23.745,FALSE
EuPb2,P-3m1,0,3.491,3.491,24.04,TRUE
NbSe2,P-6m2,0,3.4914,3.4914,23.369,TRUE
BeBr2,P-3m1,4.2271,3.4916,3.4916,23.529,TRUE
SiSe,Pmmn,1.1633,3.4922,5.7802,22.225,FALSE
YbF2,P-3m1,7.2622,3.4929,3.4929,23.554,TRUE
HfTe2,P4/mmm,0,3.493,3.493,22.617,TRUE
ScCl2,P-6m2,0.1144,3.493,3.493,23.825,TRUE
ScHCl,P-3m1,0,3.4931,3.4931,25.746,TRUE
PrSi5,Pmmm,0,3.4933,6.6072,23.394,FALSE
ZrBr2,P-3m1,0,3.4937,3.4937,22.995,TRUE
MgBi2O5,Pm,0.3194,3.4946,4.8475,25.732,FALSE
Tb2Sn,P-3m1,0,3.4951,3.4951,22.716,TRUE
VCl2O,Pmmm,1.0706,3.4953,3.6324,23.33,FALSE
SeF,P-1,1.3366,3.4954,7.2893,25.874,FALSE
Te2Mo,P2_1/m,0,3.4955,6.3725,24.139,FALSE
GeS,P3m1,2.4592,3.4955,3.4955,21.529,TRUE
ZrBr2,P2_1/m,0.5758,3.4956,6.4736,24.427,FALSE
ZrBr2,P2_1/m,0.6601,3.4957,6.472,24.411,FALSE
Sc7(CCl5)2,C2/m,0,3.496,13.769,27.608,FALSE
Fe(SbS2)2,Pmc2_1,0,3.4962,11.067,28.965,FALSE
BF3,P2_1,8.4145,3.4967,6.1044,22.956,FALSE
Sb2O3,Pm,2.1621,3.4972,5.1394,22.005,FALSE
GeS2,P-4m2,1.4089,3.498,3.498,22.855,TRUE
Dy2C,P-3m1,0,3.4981,3.4981,22.697,TRUE
NdCl2,P4/mmm,0,3.4984,3.4984,23.775,TRUE
PtF2,P-3m1,0.5108,3.4985,3.4985,22.803,TRUE
SiF2,P-3m1,1.8031,3.4985,3.4985,23.732,TRUE
SmGe5,Pmmm,0,3.5003,6.4474,23.377,FALSE
CBr2,P-3m1,1.4206,3.5003,3.5003,23.732,TRUE
SrSb2,C2/m,0,3.5005,7.553,24.98,FALSE
SnO,C2/m,2.1348,3.5019,3.5019,22.789,TRUE
Lu4B3C4,P-1,0,3.5029,3.5112,29.993,FALSE
Mg2SiO4,P4/mmm,0,3.503,3.503,27.559,TRUE
Al2S3,P-3m1,1.565,3.504,3.504,26.456,TRUE
CaBe,P-3m1,0,3.5055,3.5055,28.784,TRUE
Nb2Te,P4/nmm,0,3.5063,3.5063,27.221,TRUE
Sr2CoO3,P4/mmm,0.8491,3.5075,3.5075,24.521,TRUE
HfS5,Pmmn,0.1875,3.5079,11.66,25.378,FALSE
NbSe2,C2/m,0,3.5081,9.2774,23.708,FALSE
Ta2NiSe5,Pmmn,0,3.5087,15.731,24.427,FALSE
B3Ir,P-6m2,0,3.5093,3.5093,25.13,TRUE
Tl2O3,P1,0.8277,3.5099,6.0872,22.922,FALSE
Ca(BH)2,P-3m1,0,3.5105,3.5105,23.683,TRUE
NbBr5,Pmmm,0,3.5106,9.6363,23.745,FALSE
TiCl2,P-3m1,0,3.5108,3.5108,23.014,TRUE
TbC2,P4/mmm,0,3.512,3.512,22.621,TRUE
TaSe3,P2_1/m,0,3.5124,15.801,27.856,FALSE
Tb2C,P-3m1,0,3.5128,3.5128,22.716,TRUE
Tl2O3,P-3m1,0.6627,3.5132,3.5132,24.629,TRUE
AsO2,P6/mmm,0,3.5133,3.5133,23.731,TRUE
CrSe,P4/nmm,0,3.5133,3.5133,23.354,TRUE
TeRu,Cmme,0,3.514,3.514,23.662,TRUE
AuN6,Pmn2_1,0,3.5145,9.5222,29.06,FALSE
NO2,P-1,2.3307,3.5145,9.7535,23.791,FALSE
MnS,P4/nmm,0,3.5156,3.5156,23.119,TRUE
MoI5,Pm,0,3.5173,11.15,23.822,FALSE
TaSe2,P-1,0,3.5174,9.3149,24.237,FALSE
SiSe2,P-3m1,0.4111,3.5178,3.5178,22.608,TRUE
TaSe3,P2_1/m,0,3.5182,12.309,27.06,FALSE
CuClO2,P222_1,0.7813,3.5186,6.9208,22.721,FALSE
BiN,P1,1.4072,3.519,3.711,22.479,FALSE
IrF2,P-3m1,0,3.5192,3.5192,22.858,TRUE
PtS,P-3m1,0,3.5192,3.5192,23.678,TRUE
Sc2Cl3,C2/m,0.639,3.5197,8.9978,25.497,FALSE
AgBiO2,P2_1/m,1.991,3.5201,6.6794,23.757,FALSE
Tb2Pb,P-3m1,0,3.5205,3.5205,22.716,TRUE
Y2(CuO2)3,C2/m,0,3.5215,6.2911,26.108,FALSE
NbSe3,P2_1/m,0,3.5219,15.835,27.987,FALSE
LuGe2,P4/mmm,0,3.5226,3.5226,23.779,TRUE
AgCNO,Pmm2,1.2211,3.5228,5.5321,"20.0,""",FALSE
TeC,Aem2,0.6514,3.523,3.523,22.841,TRUE
ScBr3,Pmmn,2.214,3.5238,10.409,24.855,FALSE
Sc5CCl8,P2/m,0,3.5241,11.985,25.525,FALSE
NbSe3,P2_1/m,0,3.5245,12.316,27.011,FALSE
MoO3,P-6m2,0,3.5251,3.5251,23.555,TRUE
NbCrSe5,P2_1/m,0,3.5255,10.346,27.863,FALSE
VF5,Pmma,0.8951,3.5256,8.1139,23.595,FALSE
Te2W,P2_1/m,0.0733,3.5259,6.3101,24.194,FALSE
Ti3Te2,P4/mmm,0,3.5264,3.5264,26.086,TRUE
TiSi2,P4/nmm,0,3.5265,3.5259,25.781,FALSE
Pb,P-3m1,0,3.5267,3.5267,22.485,TRUE
BaCe,Pmmn,0,3.5269,4.2292,25.269,FALSE
Sc7Cl10,C2/m,0,3.5276,15.71,26.604,FALSE
NdGe5,Pmmm,0,3.5279,6.5406,23.414,FALSE
BaPb2,P-3m1,0,3.5281,3.5281,24.445,TRUE
Sc2Cl5,P2_1/m,0.2755,3.5281,14.066,27.077,FALSE
FeBiSbS4,Pmc2_1,0,3.5298,11.16,28.847,FALSE
SbOF,Pmn2_1,3.18,3.5298,4.0325,24.059,FALSE
ZrBr,P-3m1,0,3.5306,3.5306,26.108,TRUE
AuS,P2/m,1.3267,3.5312,6.0914,22.535,FALSE
NiSe2,P-3m1,0.0963,3.5318,3.5318,22.456,TRUE
TiIN,Pmmn,0.0312,3.5319,3.9675,25.803,FALSE
Sc5Cl8,P2/m,0,3.532,13.297,25.191,FALSE
CuBiO2,P2_1/m,1.4231,3.5322,6.153,23.494,FALSE
NiSe,P3m1,0,3.5324,3.5324,21.231,TRUE
LiAgF4,Pnc2,1.7719,3.5325,11.389,21.73,FALSE
ZrS5,Pmmn,0.1667,3.5334,11.793,23.709,FALSE
CdF2,P-3m1,3.9391,3.5335,3.5335,22.956,TRUE
GeP2,Pmc2_1,1.318,3.5337,10.191,26.206,FALSE
LiCuO,Pmma,1.2528,3.5343,5.2305,21.896,FALSE
CaPb2,P-3m1,0,3.5347,3.5347,24.664,TRUE
BaSb2,C2/m,0,3.5351,8.2548,24.98,FALSE
YBr2,P4/mmm,0,3.5356,3.5356,23.801,TRUE
SiSe,P3m1,2.0882,3.5356,3.5354,21.529,TRUE
Ru3S4,P-3m1,0,3.5362,3.5362,27.542,TRUE
PdS2,P-3m1,1.0868,3.5363,3.5363,22.613,TRUE
Tl4O3,P2_1/m,1.1298,3.5368,7.7157,27.762,FALSE
AsP,P1,0.8462,3.5371,4.5884,22.479,FALSE
HfSiSe,P4/nmm,0,3.5374,3.5374,26.394,TRUE
SmF3,Pmmn,7.0773,3.5379,7.0901,24.348,FALSE
Mg2N,P-4m2,0,3.5384,3.5298,22.957,FALSE
Fe(BrN)2,P2/m,0,3.5385,4.0313,22.676,FALSE
PI5,Pmma,0,3.539,20.211,23.858,FALSE
LiCa,P2_1/m,0,3.5392,3.3834,26.187,FALSE
CrSBr,Pmmn,0.2928,3.5393,4.7261,25.653,FALSE
CaBO3,P2_1/m,0.5147,3.5398,5.3533,24.308,FALSE
VI5,Pmma,0,3.5402,14.397,23.595,FALSE
LiAgF4,P2/m,0.6797,3.5412,6.3388,23.97,FALSE
YbH2ClO2,P2_1/m,0,3.5418,6.0678,25.492,FALSE
GdC2,P4/mmm,0,3.5424,3.5424,22.57,TRUE
TiSe2,P-3m1,0,3.5428,3.5428,23.094,TRUE
As6Au,Pmn2_1,0,3.5429,7.9559,29.06,FALSE
AgS,P2/m,0.9872,3.5429,5.8095,22.55,FALSE
EuP2,Pm,0,3.543,4.8235,23.172,FALSE
Y2C,P-3m1,0,3.5433,3.5433,22.695,TRUE
SiP,P-1,1.8591,3.5438,10.462,25.224,FALSE
Ho2CF2,P-3m1,1.1136,3.5441,3.5441,25.389,TRUE
ScClO,P4/nmm,4.0804,3.5442,3.5442,25.145,TRUE
Y5F8,P2/m,0,3.5446,12.145,25.194,FALSE
OsSe2,P-3m1,0,3.5447,3.5447,22.67,TRUE
Zr3S2,P4/mmm,0,3.545,3.545,26.086,TRUE
SiP,C2/m,1.9514,3.5451,10.476,24.729,FALSE
WO3,P-6m2,0,3.5455,3.5455,23.61,TRUE
Ta(NiTe)2,Pmma,0,3.5455,6.5088,25.49,FALSE
RuCl2O,Pmmm,0,3.5458,3.6976,23.363,FALSE
Hf3Se2,P4/mmm,0,3.547,3.547,26.086,TRUE
Zr2HBr2,P2_1/m,0,3.5471,5.9509,26.418,FALSE
AuCl,P-3m1,0,3.5478,3.5479,23.814,TRUE
BeBr2,P-4m2,4.1914,3.5479,3.5479,22.656,TRUE
HoH2ClO2,P2_1/m,4.421,3.5487,6.203,25.459,FALSE
Ru3S4,P2_1/m,0,3.549,5.8085,28.105,FALSE
Cd(HO)2,P-3m1,2.2721,3.5491,3.5491,24.18,TRUE
Ca2N,Pmmn,0,3.5495,4.8837,22.143,FALSE
C,Cmme,0,3.5496,3.5496,22.532,TRUE
Te4Os3,P-6m2,0,3.5511,3.5511,29.348,TRUE
YBC,P4mm,0,3.5513,3.5565,21.49,FALSE
Al4S3,Pmn2_1,0.8611,3.5513,11.053,30.194,FALSE
Tl2O,P-3m1,0.9395,3.5517,3.5517,23.252,TRUE
B2Te3,P-3m1,0,3.5527,3.5527,26.456,TRUE
NpS3,Pmma,0,3.553,3.5789,30.582,FALSE
CaGaN,P4/nmm,0,3.5541,3.5541,26.316,TRUE
IrS2,P-3m1,0,3.5544,3.5544,22.656,TRUE
VF5,Pmmm,0.3231,3.5545,4.4446,23.745,FALSE
Bi2O3,Pmma,1.0327,3.5548,16.493,24.608,FALSE
Co(SiSe2)2,C2/m,0,3.5549,6.8864,22.896,FALSE
LaGe5,Pmmm,0,3.556,6.704,23.46,FALSE
ZnFe2S5,Pmmn,0,3.5561,13.379,23.914,FALSE
EuIn2Au,Pm,0,3.5562,4.8463,24.63,FALSE
SiSe,Pbcm,0,3.5565,8.6045,22.971,FALSE
N2,Pmma,2.9697,3.5576,6.7691,"20.0,""",FALSE
ScBrO,Pmmn,3.3226,3.5576,3.9612,25.849,FALSE
PS,C2/m,0,3.5591,3.5591,23.3,TRUE
PtS2,P-3m1,1.8227,3.5591,3.5591,22.662,TRUE
AlS,P-6m2,0.1049,3.5601,3.5601,25.022,TRUE
TmS3,Pmma,0,3.5602,3.5828,30.381,FALSE
Mn2ZnS5,Pmmn,0,3.561,13.875,24.491,FALSE
TiI,P-3m1,0,3.5619,3.5619,26.166,TRUE
CrF2,P2_1/c,3.0559,3.5619,5.5838,21.526,FALSE
TiSe3,Pmmn,0.0369,3.562,5.3504,26.856,FALSE
Ga2S3,P-3m1,0.556,3.5624,3.5624,26.456,TRUE
RhSe2,P-3m1,0,3.5627,3.5627,22.656,TRUE
ScS3,P4/nmm,0,3.5627,3.5627,29.216,TRUE
Be2P,Pmmn,0,3.5627,3.5116,21.734,FALSE
TiSe3,P2_1/m,0,3.5628,5.3755,26.873,FALSE
FeSe,Cmme,0,3.5628,3.5628,23.662,TRUE
SrCe,Pmmn,0,3.5628,4.1478,25.269,FALSE
InClO,Pmmn,2.6455,3.5635,4.1275,25.663,FALSE
AuS,P-1,0.3208,3.5642,6.3744,25.301,FALSE
Te2W,P-6m2,1.0613,3.5652,3.5652,23.646,TRUE
GeF2,P-3m1,2.7029,3.566,3.566,23.732,TRUE
SrMg2,Pmma,0,3.5662,5.7897,28.553,FALSE
Y2F3,C2/m,0.9618,3.5663,8.4781,25.496,FALSE
PtF2,P2_1/m,0.8752,3.5665,4.1204,24.932,FALSE
VI5,Pmmm,0,3.5666,10.762,23.745,FALSE
ZrSiSe,P4/nmm,0,3.5667,3.5667,27.12,TRUE
LaClO2,P2/m,3.1343,3.5668,6.7697,25.934,FALSE
ScS,P4/nmm,0,3.5669,3.5669,23.289,TRUE
HoS3,Pmma,0,3.5674,3.5854,30.431,FALSE
TcTe2,P-3m1,0,3.5676,3.5676,22.641,TRUE
Te2Mo,P-6m2,1.0563,3.5678,3.5678,23.619,TRUE
PrGe5,Pmmm,0,3.5679,6.6068,23.394,FALSE
H3Pt,P6/mmm,0,3.5685,3.5685,"20.0,""",TRUE
BTe,P-6m2,1.475,3.5687,3.5687,24.817,TRUE
Se3N2,P2_1/m,0.0535,3.5692,9.243,24.959,FALSE
ErS3,Pmma,0,3.5701,3.5852,30.429,FALSE
AgCNO,P2_1/m,3.2024,3.5704,6.5068,26.926,FALSE
VTe3,P2_1/m,0,3.5708,13.224,27.009,FALSE
HfBrN,Pmmn,2.1644,3.571,4.108,25.912,FALSE
BiAuO2,P2_1/m,1.6343,3.5711,6.4872,23.754,FALSE
Ca2Ce,Pmma,0,3.5729,5.8651,27.931,FALSE
Al2S5,C2/m,1.7116,3.5737,7.17,24.1,FALSE
SrSn2,P-3m1,0,3.5738,3.5738,24.664,TRUE
Ta2PtSe7,P2_1/m,0.0144,3.5739,18.934,26.029,FALSE
LuN2,C222,0,3.5747,3.7491,25.031,FALSE
DyS3,Pmma,0,3.5749,3.5911,30.585,FALSE
YF,P-3m1,0,3.5753,3.5753,26.854,TRUE
ZnCl2,P-3m1,4.5163,3.5766,3.5766,23.451,TRUE
GeS,Pbcm,0.4725,3.5768,11.076,22.971,FALSE
MoF5,Pmma,1.4201,3.577,8.489,23.603,FALSE
TbF,P-3m1,0,3.5771,3.5771,26.638,TRUE
SrBi2,C2/m,0,3.5771,7.5496,24.98,FALSE
SeO3,P-6m2,0.4626,3.5773,3.5773,23.59,TRUE
Al2FeS4,P3m1,0,3.5774,3.5774,29.02,TRUE
SrCuBiO4,P4/mmm,0,3.5778,3.5778,33.165,TRUE
Ta2Te3,P2_1/m,0,3.5784,10.339,23.996,FALSE
BiO2,P-3m1,0,3.5795,3.5792,21.972,TRUE
Tl2O3,Pc,0.3955,3.5798,6.5444,25.735,FALSE
H3Pd,P6/mmm,0,3.58,3.58,"20.0,""",TRUE
HfNCl,P-3m1,3.463,3.5801,3.5801,26.228,TRUE
ZnFe2O5,Pmmn,0,3.5804,11.725,23.728,FALSE
LiV(OF)2,P2_1/m,2.3533,3.5813,6.5143,24.577,FALSE
V2NiSe4,P-3m1,0,3.5817,3.5817,28.748,TRUE
B2Te3,P1,0,3.5822,6.5127,29.44,FALSE
SiF4,P4/mmm,6.6934,3.5823,3.5822,23.818,TRUE
InN,P-6m2,0.5856,3.5824,3.5824,20,TRUE
CuBr,Pmma,0.6441,3.5828,3.5599,23.042,FALSE
PbN,P-1,0,3.5832,9.1547,25.463,FALSE
CuF2,P-4m2,0.1959,3.5838,3.5817,23.53,FALSE
VSe,P4/nmm,0,3.5851,3.5851,23.448,TRUE
F2,Pbam,2.8545,3.5851,6.2011,19.861,FALSE
LiHO,P4/nmm,3.9169,3.5852,3.5852,23.642,TRUE
AlS,P-6m2,2.0336,3.5853,3.5853,25.019,TRUE
Ga2S5,C2/m,1.6842,3.5854,7.3617,24.095,FALSE
BTe,P-1,0.686,3.5858,4.4026,23.422,FALSE
ScBr,P-3m1,0,3.5869,3.5869,26.27,TRUE
SiSe2,P-4m2,1.121,3.5875,3.5875,22.855,TRUE
BTe,C2/m,1.8322,3.5879,10.24,25.588,FALSE
SrH4O3,Pmc2_1,4.3476,3.5885,6.6119,25.815,FALSE
YS3,P4mm,0,3.5896,3.5897,24.447,TRUE
AsCl5,Pmma,0.0519,3.5901,12.585,23.858,FALSE
RuCl2,P-3m1,1.2967,3.5901,3.5901,23.24,TRUE
TiSe5,Pmmn,0.1995,3.5908,12.318,25.297,FALSE
Ca2Zn,P4/mmm,0,3.5909,3.5909,23.983,TRUE
Ga2Fe2S5,P-6m2,0,3.591,3.591,32.104,TRUE
P,P4/nmm,0,3.5912,3.5901,23.788,FALSE
Lu2CCl2,P-3m1,1.0344,3.5914,3.5914,26.048,TRUE
CaBi,Pmm2,0,3.5916,5.8982,27.111,FALSE
Ca2N,P-3m1,0,3.5917,3.5917,22.51,TRUE
BTe,P-3m1,1.7859,3.5925,3.5925,24.623,TRUE
CaF2,P-3m1,7.1626,3.5931,3.5931,23.016,TRUE
Pb3N2,Pmmn,0.031,3.5934,11.494,23.067,FALSE
SnC,P-6m2,0.9468,3.5934,3.5934,20.769,TRUE
MnSe,P4/nmm,0,3.5938,3.5938,23.119,TRUE
UF3,Pmmn,0.027,3.5942,7.319,24.951,FALSE
NaCa,P2_1/m,0,3.5944,3.479,26.162,FALSE
AlS,P-3m1,2.0969,3.5957,3.5957,24.623,TRUE
InF,P4/nmm,2.1553,3.5959,3.6007,23.633,FALSE
NiS,P-3m1,0,3.5961,3.5961,23.678,TRUE
Nb2Te3,P2_1/m,0,3.5972,10.398,24.102,FALSE
Nb2Te3,P2_1/m,0,3.5976,10.39,23.997,FALSE
ThF2,P-6m2,0.371,3.5976,3.5976,24.529,TRUE
FeS,P4/nmm,0,3.5977,3.5977,22.56,TRUE
B4Te3,Pmn2_1,0.2181,3.5977,9.253,30.194,FALSE
CeC2,P4/mmm,0,3.5978,3.5978,22.585,TRUE
UPb2,P-1,0,3.5979,5.3193,26.177,FALSE
WF5,Pmma,2.3857,3.5986,8.4878,23.403,FALSE
AlS,P-1,1.9176,3.5987,10.918,25.606,FALSE
AgS2,P-3m1,0,3.5991,3.5994,23.008,TRUE
Mn(HO)2,P3m1,2.0543,3.5997,3.5997,22.78,TRUE
FeTe,P4/nmm,0,3.5998,3.5998,24.071,TRUE
RhCl2,P-3m1,0,3.6003,3.6003,23.069,TRUE
As2S3,P2_1/m,0.9712,3.6003,9.2382,26.221,FALSE
AlS,P3m1,0.3007,3.6004,3.6004,21.25,TRUE
Ca(HO)2,P-3m1,3.6708,3.6005,3.6005,24.252,TRUE
GeO,P4/nmm,2.194,3.6013,3.6013,22.379,TRUE
OsSe,Cmme,0,3.6014,3.6014,23.662,TRUE
VTe2,Pmmm,0,3.6017,3.1474,23.443,FALSE
HfS3,Pmmn,1.1468,3.6024,5.1371,25.891,FALSE
V2O5,P2_1/m,1.7748,3.6049,6.3413,27.122,FALSE
Os3S4,P-3m1,0,3.6057,3.6057,27.542,TRUE
MoN2,C2/m,1.2572,3.6061,5.652,22.496,FALSE
As,P-3m1,1.573,3.6061,3.6061,21.287,TRUE
BiC,P-1,0,3.6064,10.129,24.95,FALSE
BiC,C2/m,0.1299,3.6067,10.126,24.729,FALSE
TbHO2,Pmmn,3.4007,3.6067,4.2616,27.82,FALSE
VS,P4/nmm,0,3.6076,3.6076,23.448,TRUE
SmC2,P4/mmm,0,3.6081,3.6081,22.592,TRUE
BTe,P-6m2,0,3.6085,3.6085,28.035,TRUE
Ga2Fe2S5,P-3m1,0,3.6086,3.6086,32.011,TRUE
As2S3,P2_1/m,0.9767,3.6088,9.6426,25.252,FALSE
ScBrO,P4/nmm,3.4976,3.6088,3.6088,25.327,TRUE
NiTe,P4/nmm,0,3.6089,3.6089,22.999,TRUE
NdF3,Pmmn,6.9813,3.6092,7.2032,24.388,FALSE
V2CuO6,C2/m,0,3.6096,9.1126,23.829,FALSE
WN2,C2/m,0.5267,3.6103,5.6492,22.671,FALSE
Nb2CuS4,P-3m1,0,3.6112,3.6112,29.59,TRUE
OsCl2O,Pmmm,0,3.6112,3.7273,23.168,FALSE
NaTlO,Pm,0.0968,3.6113,6.0692,28.166,FALSE
Ga2Fe2S5,P-3m1,0,3.6123,3.6131,31.911,FALSE
Y7F10,P-1,0,3.6128,14.088,26.908,FALSE
USi2,C2/m,0,3.6128,5.3628,26.177,FALSE
V4Ag2O11,C2/m,1.4207,3.613,8.3241,25.947,FALSE
P2Se3,P2_1/m,0.2843,3.6133,9.4437,26.233,FALSE