Formula,Space Group,Band Gap,a,b,c,a=b
Ba2Sb2O5,P2_1/m,3.0636,6.2858,8.2826,26.48,FALSE
Hg3N,P6/mmm,0.0438,6.2867,6.2867,"20.0,""",TRUE
Mn2Br7,P2/c,0,6.288,12.611,23.69,FALSE
ScPb3,P6/mmm,0,6.2896,6.2896,"20.0,""",TRUE
BaH9IO5,P-1,3.9114,6.2924,7.9649,28.183,FALSE
PBr3,Pmn2_1,2.9854,6.2925,9.8666,25.699,FALSE
ZrCl4,P-1,3.4429,6.2925,7.2637,23.092,FALSE
NbNiTe2,Pmna,0,6.2926,8.0087,24.686,FALSE
Li3BiH8O7,P-1,3.6282,6.2954,6.8828,27.551,FALSE
CrBr5,P2/m,0,6.2959,5.2171,23.822,FALSE
WCl3,P-31m,0.7679,6.2965,6.2965,22.871,TRUE
In2S3,P1,0.7589,6.2976,8.4765,38.281,FALSE
Li6Br3N,P2/m,1.8215,6.2979,5.7577,24.322,FALSE
Nb(SCl)2,C2/m,1.8207,6.3051,6.4098,24.077,FALSE
WBr4,P1,0.4233,6.3056,6.6331,22.752,FALSE
Mg2Pb,P-1,0,6.307,6.0413,28.824,FALSE
NaNbCl6,P2_1,2.1949,6.3076,6.7527,29.484,FALSE
VSO5,P4/n,2.703,6.3082,6.3082,22.239,TRUE
SrGe2,C2/m,0.1638,6.3096,5.2879,23.148,FALSE
PbO2,C2,0.9052,6.3102,6.3098,24.5,FALSE
TiBr4,P1,1.7061,6.3139,7.5849,23.239,FALSE
V2Re2O11,P1,1.2831,6.3146,7.618,24.67,FALSE
Ag3SbS3,Pc,1.7199,6.3148,6.6279,26.345,FALSE
MoI4,P-1,0,6.3166,7.8152,23.603,FALSE
CoSn4,P4/nbm,0,6.3179,6.3179,22.924,TRUE
Ca2SiO4,P3m1,0,6.3195,6.3195,25.742,TRUE
SiBr3,P1,2.6247,6.32,9.8059,24.428,FALSE
Cr3Se2ClO8,P2_1/m,0.4978,6.3204,9.8437,26.095,FALSE
AsCl3,C2/m,2.964,6.3218,6.3218,23.539,TRUE
H3I3N2,P2_1/m,0.8353,6.3246,7.527,31.538,FALSE
HgPS3,P-1,1.9053,6.3256,6.3101,23.941,FALSE
CCl4,P1,0.44,6.3268,6.4655,22.582,FALSE
RuBr3,P-31m,0.0225,6.3274,6.3274,22.566,TRUE
TiBr3,C2/m,0,6.3281,6.367,23.094,FALSE
GaN,P4/mbm,2.0405,6.3282,6.3282,"20.0,""",TRUE
TaCl5,P-1,2.869,6.3286,6.741,30.735,FALSE
BiP(PbO2)4,P-1,2.9437,6.3289,7.2702,28.515,FALSE
ZnH4(ClO3)2,P2_1/c,2.8222,6.3337,8.5007,21.748,FALSE
Hg(TeO3)2,P-1,2.1384,6.3342,7.9202,25.967,FALSE
Cd2SiO4,C222,2.319,6.3378,6.3673,22.422,FALSE
Rb(SbSe2)2,P-1,1.5727,6.3379,7.1408,28.744,FALSE
I4N,P1,0,6.3406,6.0106,22.913,FALSE
Li2V3F8,P-3m1,2.6094,6.3412,6.3412,24.3,TRUE
NbFeTe2,Pmna,0,6.3422,7.9726,24.715,FALSE
BP,P4/mbm,0.7579,6.3422,6.3422,"20.0,""",TRUE
BBr3,Pmc2_1,3.2321,6.3429,7.2931,22.613,FALSE
NaH4ClO2,P2_1/c,4.4388,6.3436,9.782,24.474,FALSE
Ga2S3,P-62m,2.7454,6.3453,6.3453,20.011,TRUE
CrBr3,P-31m,1.4036,6.346,6.346,22.871,TRUE
Se5N2,P2_1/c,0.0104,6.3494,7.5852,32.244,FALSE
TaTe3,P2_1/m,0,6.3503,7.3618,26.383,FALSE
BP5,Pmc2_1,0,6.3513,11.464,26.806,FALSE
RhBr3,P-31m,1.4985,6.3516,6.3516,22.819,TRUE
HgF2,P-3,1.9629,6.3518,6.3516,23.168,TRUE
Na2O,P-3m1,0.868,6.3519,6.3518,22.643,TRUE
Ca(SnO2)2,Pmmn,3.1443,6.353,11.833,25.541,FALSE
TaCoTe2,P2_1/c,0.0096,6.3543,7.7675,24.659,FALSE
Tl2PAuS4,P2_1/m,1.4799,6.3553,6.7558,29.131,FALSE
CrP2S7,C2,0.036,6.3557,6.3557,23.519,TRUE
SbTe,Pc,0,6.3558,19.664,23.12,FALSE
AsBr3,Pmn2_1,2.6479,6.357,7.8127,23.123,FALSE
SbP2O7,P-1,0.0116,6.3573,6.516,24.957,FALSE
NaTaCl6,P2_1,2.891,6.3573,6.7729,29.419,FALSE
EuSn3,P6/mmm,0.3826,6.3589,6.3583,"20.0,""",TRUE
SbO2,P1,0.7075,6.359,7.4646,33.023,FALSE
CrCl5,Pm,0.1386,6.3615,5.8166,23.821,FALSE
NbCoTe2,P2_1/c,0,6.3621,7.7683,24.681,FALSE
V3F8,P-3m1,0.0013,6.3621,6.3621,24.052,TRUE
NiBi2,P31m,0,6.3631,6.3628,23.849,FALSE
Au2Se3O10,Cm,1.0184,6.3645,9.1376,24.06,FALSE
BiB,P1,0,6.3659,7.1289,19.786,FALSE
Al2S3,P-62m,3.6356,6.3665,6.3665,20.011,TRUE
VAg(PSe3)2,C2,0.0956,6.3667,6.4218,23.492,FALSE
VAg2PO6,C2/m,2.0433,6.3677,6.6724,27.961,FALSE
Si2BN,Cmmm,0.0224,6.3685,6.4562,"20.0,""",FALSE
ScCl3,P-31m,3.8438,6.3687,6.3687,22.756,TRUE
VBr3,P-31m,0.001,6.3698,6.3698,22.719,TRUE
Sn3Rh,P4/mbm,0,6.3708,6.3694,25.635,FALSE
AlBr3,C2/m,3.9121,6.3708,6.3708,22.723,TRUE
OsBr3,P-31m,0.0452,6.3709,6.371,22.681,FALSE
EuGe3,P-6m2,0.0682,6.3709,6.371,"20.0,""",FALSE
Sn3Cl8,P1,2.2038,6.3724,6.7448,33.177,FALSE
CrI4,P-1,0,6.3746,7.452,23,FALSE
NbBr4,P2_1/c,0,6.3763,18.269,24.345,FALSE
Si(HgO2)2,C222,2.5986,6.379,6.379,22.258,TRUE
SbTe,Pmma,0,6.3791,16.188,23.134,FALSE
AsI5,Pmmm,0,6.3798,6.1096,23.758,FALSE
MgI2,C2,2.8532,6.3809,7.5981,24.604,FALSE
Nb(SeCl)2,C2/m,1.0705,6.3818,6.5737,24.391,FALSE
NiSn4,P4/nbm,0,6.3825,6.3825,23.084,TRUE
VBr5,P-1,0.4562,6.3836,6.8249,31.449,FALSE
CuB2(PbO3)2,P2_1/c,0.7778,6.3847,8.2783,27.211,FALSE
BeBr2,P-1,4.07,6.3856,6.392,23.51,FALSE
Sn3Pt,P4/mbm,0,6.3862,6.387,25.862,FALSE
ReI3,C2/m,0.0949,6.3874,6.3874,21.895,TRUE
Sn3Ir,P4/mbm,0,6.39,6.39,25.635,TRUE
Cr2SiO4,C222,0,6.3948,6.2785,22.039,FALSE
NaSO2,P2/c,2.3045,6.3959,6.5622,24.557,FALSE
Li2Mn3F8,P-3m1,3.8441,6.3989,6.3989,21.719,TRUE
SbOF,P2_1/c,3.4237,6.3994,4.5943,22.275,FALSE
Mn3F8,P-1,1.0168,6.4009,6.4585,22.213,FALSE
Re2Br7,P2_1,0.0572,6.401,9.4284,31.399,FALSE
Sn3Pd,P4/mbm,0,6.4014,6.4008,25.862,FALSE
MnPSe3,P-31m,0.4502,6.4048,6.4048,23.411,TRUE
IrBr3,P-31m,1.8151,6.407,6.407,22.782,TRUE
MnI4,P2_1/c,0,6.4094,7.6115,23.074,FALSE
Mg(SbO2)2,P2_1,2.8453,6.4104,9.6555,26.813,FALSE
Ca2Sn,P-1,0,6.4115,6.4102,28.824,FALSE
HfBr3,C2/m,0.3597,6.412,6.412,22.904,TRUE
Ga2Se3,P1,0.2877,6.4122,8.1334,39.03,FALSE
TcS2,P-1,1.2219,6.4123,6.5135,23.587,FALSE
LaSn3,P6/mmm,0,6.4126,6.4126,"20.0,""",TRUE
Re3Cl8,P1,0.3467,6.4126,7.3396,22.178,FALSE
BiTe,Pmc2_1,0,6.414,16.585,23.134,FALSE
Ta2I5,Cm,0.0031,6.4149,6.4225,24.894,FALSE
SbBr4,Pc,0,6.4163,7.5812,22.461,FALSE
Zr3SO9,P-3,3.8145,6.417,6.417,27.424,TRUE
C3I8,P1,0,6.4182,7.2381,34.488,FALSE
NaClO2,Cm,2.4376,6.4192,6.557,19.914,FALSE
FeTeCl7,P1,1.2679,6.421,8.2674,27.944,FALSE
ReS2,P-1,1.4248,6.4215,6.5196,23.604,FALSE
NbPO5,P4/nmm,3.301,6.4224,6.4224,25.895,TRUE
Sb3Pb,P-6m2,0,6.4226,6.4226,"20.0,""",TRUE
PI4,P-1,0,6.4233,8.0456,25.277,FALSE
HfBr3,P-31m,0,6.4246,6.4246,23.034,TRUE
Ta3SiTe6,Pmc2_1,0,6.4261,11.582,23.832,FALSE
Nb2SiTe4,Pbam,0.5205,6.4262,7.9608,23.785,FALSE
RbAuS,Pmma,1.9993,6.4281,7.92,"20.0,""",FALSE
Nb3SiTe6,Pmc2_1,0,6.431,11.644,23.827,FALSE
NiPO4,P1,0.0889,6.4313,6.4032,27.034,FALSE
AsBr4,P-1,0.0948,6.4333,7.6274,22.809,FALSE
Sc2S3,P1,1.6026,6.4335,6.6678,21.267,FALSE
InBr,Pbcm,2.535,6.4339,6.4748,23.094,FALSE
GaAg(PSe3)2,P312,0.9722,6.4342,6.4342,23.503,TRUE
SrBr3,P6/mmm,0,6.4346,6.4346,"20.0,""",TRUE
BaYSn4O7,P3m1,0,6.4363,6.4363,23.863,TRUE
Si3Br8,P1,0.6589,6.4385,8.5057,35.124,FALSE
Tc2I5,P2/c,0,6.4387,6.9294,25.157,FALSE
NaBi3,P2/m,0,6.4388,8.7342,"20.0,""",FALSE
Ta2O3,Fmm2,0,6.439,6.4867,20.289,FALSE
InCu(PSe3)2,P312,0.5504,6.439,6.439,23.432,TRUE
SnI4,Pban,0,6.4407,8.31,22.363,FALSE
NdTe3,P6/mmm,0,6.4414,6.4414,"20.0,""",TRUE
Na2SnO6,P-3,0.5052,6.4428,6.4428,21.693,TRUE
SnO2,P3m1,0.0289,6.4437,6.4454,35.305,FALSE
Ba(BiO2)4,P-31m,0,6.4444,6.4443,24.142,TRUE
InCl3,C2/m,3.8467,6.446,6.446,22.723,TRUE
MgPSe3,P-31m,2.4219,6.4461,6.4461,23.42,TRUE
BaBi,Pmm2,0,6.4467,4.8257,27.111,FALSE
Re2I5,P2/c,0,6.448,6.9119,25.162,FALSE
GaBr3,C2/m,2.5998,6.4492,6.4492,22.723,TRUE
GeBr3,P1,2.0142,6.4494,9.4109,24.241,FALSE
Sn4Ir,Pban,0,6.45,6.6052,22.88,FALSE
TeO3,P31m,0.9754,6.4502,6.4502,23.502,TRUE
RbSb2F7,P2_1/c,4.3013,6.4509,8.7959,32.416,FALSE
LuPS4,P2_1/c,2.27,6.4523,12.497,25.128,FALSE
YPb3,P6/mmm,0,6.4542,6.4542,"20.0,""",TRUE
NbBr4,P2_1/c,0,6.4546,9.5539,26.098,FALSE
Bi,Pbam,0,6.4546,6.9392,24.52,FALSE
B2Te3,P-62m,0.9021,6.4546,6.4546,20.011,TRUE
B2Te3,P1,0,6.4558,6.8296,39.099,FALSE
PrTe3,P6/mmm,0,6.4606,6.4606,"20.0,""",TRUE
FeP3(H2O3)3,Pc,2.9352,6.4612,9.776,27.947,FALSE
AlP5,Pmc2_1,0.4075,6.4617,11.828,26.806,FALSE
GeI4,P2/c,0,6.462,7.9748,22.466,FALSE
PbI4,Pban,0,6.4632,8.3962,22.395,FALSE
WO2,P1,1.4078,6.4638,6.2794,34.043,FALSE
NaClO2,P2/c,2.7075,6.4651,6.7083,21.542,FALSE
U2Se,P2/c,0,6.4663,7.0111,20.206,FALSE
SiI4,P1,0,6.4668,8.0919,22.696,FALSE
Na2H10SO5,Pmma,2.2075,6.4677,8.5425,24.798,FALSE
LiFeF4,P2/c,3.9948,6.4679,4.9204,26.82,FALSE
Tc2Br7,P2/c,0.0591,6.4701,12.65,23.69,FALSE
Sb2Pd,P31m,0,6.4705,6.4711,23.849,FALSE
NiAs2,P-3,0,6.4706,6.4706,22.86,TRUE
PBr3,P-31m,2.1969,6.4721,6.4721,23.649,TRUE
SnP2O7,P-1,2.0933,6.4725,6.2307,24.876,FALSE
Nb2I5,P1,0,6.4743,6.4937,24.913,FALSE
Re(TeCl6)2,P-1,0.7389,6.4749,6.9319,28.805,FALSE
P2Pt,C2/m,0,6.4787,6.4788,22.894,TRUE
AlTeCl7,P2_1,3.4005,6.4788,12.497,26.985,FALSE
GaSeBr7,Pc,2.2339,6.4798,17.425,23.876,FALSE
K2Sb4S7,C2,1.7646,6.4817,6.4817,27.705,TRUE
InBr,P4/nmm,2.4822,6.4825,6.4787,23.14,FALSE
BiTe,Pc,0,6.4828,20.15,23.12,FALSE
GaP5,Pmc2_1,1.095,6.4856,12.005,26.806,FALSE
SnO2,C2,1.9239,6.4869,6.4881,24.521,FALSE
Te2OsCl12,P-1,0,6.4886,6.8986,28.622,FALSE
MnBr3,C2/m,0.0009,6.4905,6.4905,22.009,TRUE
AgMo3(PO7)2,P2_1/m,1.9611,6.4905,10.6,27.365,FALSE
Tl(MoO3)3,P2/m,0.5552,6.4916,7.8808,28.195,FALSE
Sn4Rh,P4/nbm,0,6.4931,6.4931,22.924,TRUE
TlBr,Pbcm,3.0792,6.4942,6.541,23.094,FALSE
ScAg(PSe3)2,P312,1.6673,6.5007,6.5007,23.587,TRUE
AsS,P2_1/c,1.1979,6.5026,6.9511,22.075,FALSE
ZrBr3,C2/m,0.3648,6.504,6.504,22.906,TRUE
SnI3,P1,0.7262,6.5067,7.8386,24.445,FALSE
CoPb3,P4/mbm,0,6.5083,6.5097,25.635,FALSE
ZrBr3,P-31m,0,6.5095,6.5095,23.034,TRUE
Sn7(SBr5)2,P1,1.9672,6.5096,10.13,28.6,FALSE
BP3,P-3m1,0,6.5099,6.5098,21.198,TRUE
InP5,Pmc2_1,1.0757,6.5113,12.154,26.806,FALSE
Hg2GeO4,C222,2.4807,6.5134,6.5134,22.263,TRUE
MoO2,P1,0.5943,6.5168,6.5322,34.031,FALSE
V3Cl8,P3m1,0.2202,6.5169,6.5169,24.052,TRUE
TlIn(PSe3)2,P-1,1.61,6.5175,12.931,24.539,FALSE
B2Se3,P1,0.5407,6.5176,6.541,38.673,FALSE
AgBi(PS3)2,P-1,1.4729,6.5201,11.724,24.461,FALSE
TlP5,Pmc2_1,1.3462,6.5266,12.239,26.806,FALSE
CuCO3,P2_1/c,0.0277,6.5294,8.3701,23.317,FALSE
Hf2O7,P1,0.3306,6.53,6.521,30.93,FALSE
Li2Cr4O13,C2,1.7403,6.5309,7.7704,24.921,FALSE
Bi5B,Pmc2_1,0,6.5322,12.026,26.806,FALSE
V3CrO10,P-4m2,0.2462,6.5341,6.5341,22.121,TRUE
Nb3GeTe6,Pmc2_1,0,6.5397,11.693,23.782,FALSE
Al13N2,C2/m,0,6.5404,7.4558,30.353,FALSE
NiPb3,P4/mbm,0,6.5438,6.5387,26.095,FALSE
K(MoO3)3,P2/m,0.4659,6.5438,7.8765,29.146,FALSE
Ge3Br8,P1,1.4063,6.5442,7.5806,34.413,FALSE
Re2I7,P1,0,6.546,14.787,31.61,FALSE
CrPS4,C2/m,0.7349,6.5481,6.5481,23.708,TRUE
Tl2SiS3,P-1,2.8831,6.5505,8.3261,24.124,FALSE
Te2Ru,Pcca,0,6.5509,6.5253,22.948,FALSE
Nb2GeTe4,Pbam,0.4304,6.5524,7.9776,23.799,FALSE
NaH4BrO2,P2_1/c,3.8636,6.5535,10.114,24.383,FALSE
ZnSeO3,Pca2_1,4.1041,6.5535,11.225,23.365,FALSE
PbI3,P1,1.7547,6.5568,8.4892,24.429,FALSE
InAg(PSe3)2,P312,0.9136,6.5591,6.5591,23.642,TRUE
CoPb4,P4/nbm,0,6.5597,6.5597,22.924,TRUE
LiVCuO4,Pmma,0,6.5621,8.0805,22.765,FALSE
GaCl3,Pmc2_1,3.2553,6.5646,6.1135,22.613,FALSE
PtBr2,P2_1/c,1.5828,6.5662,8.0697,26.167,FALSE
LiSnCl3,P3,4.401,6.567,6.567,17.763,TRUE
SnPS3,Pc,2.2014,6.5735,9.4235,28.478,FALSE
SbCl4,P1,0.4143,6.574,6.6786,22.364,FALSE
Re(AgCl3)2,P-3,0.9075,6.5741,6.5741,22.768,TRUE
Zr2O7,P1,0.5243,6.5746,6.6203,30.914,FALSE
V2I5,Cm,0,6.5796,6.5931,24.912,FALSE
PSe,P2_1/c,1.5177,6.5807,6.6568,22.075,FALSE
MoBr3,C2/m,1.0679,6.5816,6.5816,22.716,TRUE
NaInBr4,P2_1,3.1802,6.5819,10.396,23.752,FALSE
ZnF2,P-4m2,4.6756,6.5828,6.5754,26.753,FALSE
TaCl5,P1,2.536,6.5848,9.2948,25.638,FALSE
PdBr2,P2_1/c,1.2437,6.5849,7.9939,26.033,FALSE
CrHg(PbO3)2,P-1,2.2695,6.5856,7.2119,26.97,FALSE
CdPSe3,P-3,1.5337,6.5861,6.5861,23.593,TRUE
SbO2,Pmmn,1.4877,6.5875,3.0897,25.995,FALSE
PBr4,P-1,0.2215,6.5879,7.7095,22.793,FALSE
PCl4,P1,2.14,6.5898,7.5681,23.449,FALSE
HfBr4,P1,3.0846,6.5918,7.6823,23.404,FALSE
RhPb3,P4/mbm,0,6.5945,6.5945,25.635,TRUE
Nb2O3,C2,0.2344,6.5974,6.6064,20.294,FALSE
BiPO4,P2_1/c,2.0499,6.5986,10.963,22.998,FALSE
Rb2Sn(H2N)6,P-3,2.5644,6.5992,6.5992,24.447,TRUE
Sc2Te5O13,P1,3.1392,6.6018,8.7327,24.847,FALSE
TiV2CrO10,P-4m2,1.4589,6.6024,6.6024,22.263,TRUE
Al2Se3,P1,0,6.6025,7.808,38.336,FALSE
Nb(SBr)2,C2/m,1.5533,6.6038,6.6032,24.099,TRUE
TmAg(PSe3)2,P312,1.7993,6.6075,6.6075,23.602,TRUE
Sn4Pd,P4/nbm,0,6.6084,6.6439,22.541,FALSE
GaI,P4/nmm,2.2474,6.6084,6.6089,23.14,TRUE
GaI,Pbcm,2.2671,6.6088,6.6158,23.094,FALSE
MnSe2,P2_1/m,0,6.6107,6.5364,23.456,FALSE
WBr3,P-31m,0.81,6.6108,6.6091,22.771,FALSE
Bi2Pt,P31m,0,6.6129,6.6131,23.849,FALSE
LiTePO5,P2_1/m,3.7873,6.6146,5.9307,24.737,FALSE
NaBF4,Pmmn,7.5335,6.6171,6.566,22.815,FALSE
AlCl3,Pmc2_1,4.4627,6.6186,6.1061,22.613,FALSE
ErAg(PSe3)2,P312,1.7678,6.6196,6.6196,23.675,TRUE
TlCl3,C2/m,2.4448,6.622,6.6176,23.222,FALSE
Rb2Hg2PdCl8,C2/m,1.5561,6.6255,6.6255,28.899,TRUE
NiPb4,P4/nbm,0,6.6269,6.6333,22.903,FALSE
Sc2Te5O13,P-1,3.0639,6.6272,8.6032,30.941,FALSE
IrPb3,P4/mbm,0,6.6274,6.6274,25.635,TRUE
CuS4BrN4,P2_1/c,0.9321,6.6276,11.979,29.001,FALSE
NaH3C2O5,P-1,3.195,6.6284,6.3985,24.478,FALSE
LaPb3,P6/mmm,0,6.6294,6.6287,20,FALSE
CuBi(PSe3)2,P3,1.2766,6.6296,6.6296,23.63,TRUE
TaI4,P2_1/c,0.2188,6.6306,13.567,24.706,FALSE
K2S5,P2_1,1.122,6.6338,8.5192,25.19,FALSE
YbF3,P-1,0.0075,6.6348,6.5074,22.857,FALSE
BiF3,P2_1/c,3.5564,6.6353,10.693,23.647,FALSE
Ca,Cmmm,0,6.6371,6.6371,"20.0,""",TRUE
TlRe3(Se2Cl)2,P-1,1.4625,6.6371,8.9552,27,FALSE
HgPSe3,P-1,1.3626,6.6447,6.6161,24.424,FALSE
Bi,Pm,0.7056,6.6466,8.0832,23.456,FALSE
Sb,Pm,0.9075,6.6469,7.7082,23.456,FALSE
Tl2GeS3,P-1,2.2527,6.6497,8.42,24.249,FALSE
V3Se2ClO8,P-1,1.6571,6.6571,9.722,26.083,FALSE
TcSe2,P-1,0.9914,6.6596,6.7823,23.874,FALSE
In2Se3,P1,0.4084,6.6608,8.5215,38.111,FALSE
AlI,P4/nmm,1.6491,6.6622,6.6697,23.14,FALSE
CoI3,C2/m,0.7772,6.6624,6.6624,22.628,TRUE
NbV3O10,P-4m2,1.6676,6.665,6.665,22.236,TRUE
AlI,Pbcm,1.7702,6.665,6.6549,23.094,FALSE
AsBr3,P-31m,2.5049,6.6666,6.6666,23.649,TRUE
Ca(Bi2O3)2,Cm,0.0009,6.6689,10.318,26.714,FALSE
Al2S3,P1,0.758,6.6693,7.0123,38.277,FALSE
Na2ZnS2,Pca2_1,2.3617,6.6716,6.6972,27.548,FALSE
PtPb3,P4/mbm,0,6.6718,6.6719,25.862,TRUE
ZrBr4,P1,2.5913,6.6725,7.696,23.602,FALSE
OsI4,P2_1/c,0,6.6727,6.9311,23.428,FALSE
Re3Se4Cl,P-1,1.247,6.6749,6.7071,28.041,FALSE
Mo2SBr2,Pmma,0.9683,6.6759,12.06,26.376,FALSE
LiSb3(PO5)2,P1,3.5577,6.6762,7.2776,19.491,FALSE
ReSe2,P-1,1.2463,6.6763,6.7958,23.795,FALSE
ScBr3,P-31m,2.8986,6.6776,6.6776,23.545,TRUE
YbBr3,C2/m,0.5146,6.6808,7.3378,22.454,FALSE
GaBi5,Pmc2_1,0,6.6817,12.65,26.806,FALSE
Sn4Pt,P4/nbm,0,6.6842,6.6747,22.903,FALSE
C3Cl8,P1,0.3852,6.6862,5.8339,32.986,FALSE
TaI3,P-31m,0,6.6863,6.6863,22.719,TRUE
VMoO5,P4/n,1.8118,6.6871,6.6871,26.335,TRUE
Ga2Se3,P-62m,1.9693,6.6877,6.6877,20.011,TRUE
RuI4,P2_1/c,0,6.6888,6.8462,23.36,FALSE
CaPH3O4,P2_1/c,4.6119,6.6891,7.9037,27.021,FALSE
FeI3,P-31m,0.0576,6.6905,6.6892,22.681,FALSE
UCl4,C2/m,0.1926,6.6923,6.6923,25.19,TRUE
La(HO)3,P2_1/c,4.3744,6.6939,12.043,24.499,FALSE
RhPb4,P4/nbm,0,6.6944,6.6944,22.924,TRUE
BaGe2,C2/m,0.2294,6.6949,5.5597,23.148,FALSE
BAs,P4/mbm,0.6152,6.6952,6.7048,19.991,FALSE
BaSi2,C2/m,0.0239,6.6958,5.5306,23.148,FALSE
BrO2,P2_1/c,1.4288,6.6961,8.2072,24.529,FALSE
ClO2,P2_1/c,0.2656,6.6977,8.0948,24.528,FALSE
Tl2SO3,P2_1/c,2.967,6.6978,11.246,23.363,FALSE
Si,Cmmm,0,6.6988,6.6988,22.476,TRUE
UP2(PbO5)2,P-1,1.7185,6.6999,11.879,23.762,FALSE
Ca5Co,Pmc2_1,0,6.7035,7.4417,25.788,FALSE
IrPb4,P4/nbm,0,6.7039,6.7039,22.924,TRUE
Al2Se3,P-62m,2.8606,6.7049,6.7049,20.011,TRUE
AgBi(PSe3)2,P3,1.4659,6.7052,6.7052,23.693,TRUE
Mn2I5,P2/c,0,6.7074,7.3421,26.384,FALSE
ThF4,P2_1/c,6.0123,6.7079,10.651,24.877,FALSE
Tl2Sn(AsS3)2,P-3,1.6514,6.7083,6.7083,25.338,TRUE
V2Cu2O7,P2/c,0,6.7108,8.0851,23.596,FALSE
SnPS3,P-3,1.347,6.711,6.711,23.466,TRUE
Ca2C,P4/nmm,0.0154,6.7119,6.7349,28.824,FALSE
PdPb3,P4/mbm,0,6.7129,6.7052,25.862,FALSE
Nb3IrS8,C2,0,6.7149,6.7165,23.347,FALSE
LiVF5,P4/n,2.1783,6.7155,6.7155,22.275,TRUE
Nb(SeBr)2,C2/m,1.2324,6.7184,6.772,24.51,FALSE
LiV(OF)2,Pca2_1,2.5586,6.7188,8.7423,24.793,FALSE
TaCl4,P1,1.1139,6.726,6.8291,23.507,FALSE
Ta3Cl8,P3m1,0.1831,6.7265,6.7265,24.052,TRUE
Sn3N4,P3m1,0.3953,6.7267,6.7267,20.011,TRUE
NiI2,P2_1/c,0.6828,6.7279,7.9955,26.147,FALSE
Ca5Rh,Pmc2_1,0,6.7296,7.5437,25.788,FALSE
IrI4,P2_1/c,0,6.7297,6.8708,23.429,FALSE
KSb3O5,Pc,3.2634,6.7315,7.4832,26.691,FALSE
Si(PbS2)2,P2_1/c,2.0979,6.7357,17.933,23.544,FALSE
Ga2S3,P1,0.8386,6.7381,7.0837,38.557,FALSE
Ga13N2,P-3m1,0,6.739,6.6866,25.085,FALSE
HfO2,Pmm2,2.8523,6.739,6.766,22.032,FALSE
USe2O7,P2,2.2378,6.7413,9.4805,24.324,FALSE
Bi2Mo,P-1,0,6.7425,3.3732,22.703,FALSE
TaTe4I,Cmme,0.7748,6.7443,9.1928,24.685,FALSE
NaBH8O7,P-1,4.0307,6.7475,7.9286,24.689,FALSE
GaBr3,Pmc2_1,3.0761,6.7489,6.3147,22.613,FALSE
Tl2Se3,P1,0,6.7491,9.3681,36.883,FALSE
CaP2H6O7,P-1,4.9499,6.7495,7.0062,29.506,FALSE
RhI4,P2_1/c,0,6.75,6.8827,23.503,FALSE
NbBr5,P-1,1.4377,6.752,6.9901,30.611,FALSE
SbCl3,C2/m,2.8268,6.7547,6.7547,23.527,TRUE
AgTeO3,P2_1/m,1.1883,6.7557,7.4479,27.2,FALSE
FeTeBr7,P1,1.043,6.7563,8.7532,28.754,FALSE
BiBr5,Pmmm,0,6.7578,5.4951,23.758,FALSE
ClO3,P-1,1.1161,6.7588,5.6988,22.707,FALSE
FeMoClO4,P4/nmm,2.202,6.7633,6.7633,27.476,TRUE
CdP2H6O7,P-1,4.4815,6.7635,7.5819,28.379,FALSE
NbVO5,P4/n,1.9223,6.7712,6.7712,27.322,TRUE
PI5,Cmmm,0,6.7776,7.3082,23.758,FALSE
As3C,P-3m1,0.0444,6.7782,6.7782,21.405,TRUE
RhBr4,P2/m,0,6.7806,6.7836,23.743,FALSE
In2S3,P321,1.9061,6.7807,6.7807,22.249,TRUE
Na2ZnCl4O3,P31m,0.6517,6.7848,6.7848,22.758,TRUE
Nb3Cl8,P3m1,0.2369,6.7854,6.7854,23.495,TRUE
TaBr4,P2_1/c,0.1852,6.7874,17.889,24.645,FALSE
FeWClO4,P4/nmm,2.4814,6.7892,6.7892,27.522,TRUE
Ca5Ir,Pmc2_1,0,6.7906,7.5419,25.788,FALSE
CaF2,P-1,6.2625,6.7915,6.8404,23.512,FALSE
InBr3,P-31m,2.9321,6.7919,6.7912,23.172,TRUE
Tc3Cl8,Cm,0.0379,6.7923,6.7739,22.168,FALSE
TaBr5,P-1,1.9349,6.7938,7.0176,30.567,FALSE
Tc2I7,P2_1,0,6.794,15.296,31.684,FALSE
HgCl2,P-3,2.5156,6.8014,6.8014,23.168,TRUE
VI4,P2_1/c,0,6.8022,9.9428,25.818,FALSE
PdPb4,P4/nbm,0,6.8028,6.8182,22.903,FALSE
BiBr4,P4/nbm,0,6.8032,6.8397,22.462,FALSE
ZrPbF6,Cmme,5.3222,6.8046,6.8046,25.757,TRUE
TcI3,C2/m,0,6.8054,6.8054,21.942,TRUE
WI4,P1,0.0355,6.8064,7.2337,22.739,FALSE
Te6Br2O11,Pmma,2.4001,6.8126,15.684,24.023,FALSE
VCl4,P1,0.0016,6.8135,5.9869,22.586,FALSE
Al2Te3,P1,0,6.8167,8.6567,37.556,FALSE
KBi(PS3)2,P2_1,1.7368,6.8171,7.1895,29.278,FALSE
SiI3,P1,1.2711,6.8183,9.863,24.368,FALSE
Mn(CO3)2,P2_1/c,1.4049,6.8194,7.3601,22.684,FALSE
AgHgAsS3,Pc,1.5009,6.8198,8.1458,26.424,FALSE
NiSb2,P-3,0,6.8225,6.8225,22.86,TRUE
PbO2,P3m1,1.2607,6.8251,6.8251,22.029,TRUE
Ca(TiS2)8,P-3m1,0,6.8277,6.8277,29.85,TRUE
IO3,C2/m,1.9443,6.834,6.8538,22.558,FALSE
Co(CO3)2,P2_1/c,0.7122,6.8342,7.3939,22.681,FALSE
AsSe,P2_1/c,1.0058,6.8347,7.0518,22.075,FALSE
ThCo5,P6/mmm,0,6.8349,6.8647,"20.0,""",FALSE
CrSiTe3,P-31m,0.5924,6.835,6.835,23.449,TRUE
P2Pd,P-3,0,6.8356,6.8356,22.86,TRUE
KSnN3,P-3,0.6514,6.8364,6.7738,25.959,FALSE
RhI3,P-31m,1.2315,6.8366,6.8366,22.978,TRUE
Bi(PdO2)2,P4/nmm,0,6.8374,6.8374,24.475,TRUE
RhI3,C2/m,1.2412,6.8379,6.8379,22.629,TRUE
Tl2SiSe3,P-1,2.1983,6.8393,8.7274,24.355,FALSE
PI3,Pmn2_1,1.8507,6.8397,8.4645,23.123,FALSE
BaMgSn,P4/nmm,0.0855,6.8418,6.8418,30.815,TRUE
Tl2GeSe3,P-1,1.5326,6.8421,8.7678,24.389,FALSE
RuI3,P-31m,0.1309,6.8455,6.8455,22.566,TRUE
AsBr5,Pmmm,0,6.8476,5.2111,23.758,FALSE
Li2UBr6,P-31m,0.1522,6.8496,6.8496,23.112,TRUE
Tl2S3,P-62m,0.7582,6.8498,6.8497,20.011,TRUE
BiP2O7,P-1,0.0874,6.8508,6.8586,24.871,FALSE
Lu2Te5O13,P-1,3.1633,6.8526,8.6061,30.604,FALSE
BaMgPb,P4/nmm,0.0187,6.8527,6.8527,31.074,TRUE
AsF3,P2_1/c,5.2412,6.8548,10.457,23.667,FALSE
PtPb4,P4/nbm,0,6.8566,6.8566,23.084,TRUE
TlN,P2_1/c,1.0122,6.8571,6.6212,19.901,FALSE
PtI4,Pca2_1,0.8949,6.8578,15.63,25.45,FALSE
Sn3Br8,P1,1.233,6.858,7.1943,33.542,FALSE
BI3,Pmc2_1,2.2385,6.8604,8.3703,22.613,FALSE
IrI3,P-31m,1.5617,6.8621,6.8621,22.978,TRUE
IrI3,C2/m,1.5626,6.8701,6.8701,22.857,TRUE
Te4MoBr,C2/m,1.0145,6.8702,8.7959,24.566,FALSE
NaClO4,Pmmn,5.5747,6.8703,6.7829,22.792,FALSE
SnGeS3,P2_1/c,1.9073,6.8704,10.478,27.343,FALSE
YCl3,P-31m,4.9775,6.8706,6.8706,23.046,TRUE
SiP3,P-3m1,0,6.8715,6.8715,21.68,TRUE
U2Te,P2/c,0,6.8732,7.2192,20.206,FALSE
Ba(BSe3)2,C2/m,2.1729,6.8748,6.8748,22.879,TRUE
Sm(AlCl4)2,P2/c,0.2571,6.8774,12.521,24.808,FALSE
Lu2Te5O13,P1,3.0785,6.8808,8.6297,24.841,FALSE
P2Pd3S8,P-3m1,1.7793,6.8827,6.8827,28.569,TRUE
OsI3,P-31m,0.0829,6.8844,6.8845,22.681,TRUE
MnI3,C2/m,0,6.8881,6.8881,21.866,TRUE
InI,Pbcm,2.2208,6.8904,6.916,23.094,FALSE
CrI3,P-31m,1.0747,6.8917,6.8912,22.771,TRUE
SbI3,Pc,1.8178,6.8928,8.5592,23.1,FALSE
ZrO2,Pmm2,2.9693,6.8939,6.9424,22.032,FALSE
BiO2,Pmmn,0.3202,6.9004,3.3234,25.995,FALSE
BiPPbO5,P-1,3.5528,6.9018,7.8347,25.528,FALSE
GePbS3,P2_1/c,2.2182,6.9024,10.373,27.265,FALSE
Al13Sb2,P1,0,6.9029,6.9391,25.077,FALSE
HfI3,P-1,0.3283,6.9029,6.8964,24.624,FALSE
Tm2Te5O13,P-1,3.0866,6.9032,8.5752,30.959,FALSE
Bi2P4O13,C2,4.1929,6.9084,6.9149,24.918,FALSE