Formula,Space Group,Band Gap,a,b,c,a=b
In2Te5,C2/m,1.2663,4.3509,8.622,24.107,FALSE
HgSe,P3m1,0,4.3518,4.3518,56.585,TRUE
Sb2Se3,Pc,1.2236,4.3519,13,22.708,FALSE
SnI2,P-6m2,1.9172,4.3522,4.3522,23.838,TRUE
La2Pb,P-3m1,0,4.3534,4.3534,22.695,TRUE
CdP,P-6m2,0,4.3534,4.3534,20.274,TRUE
In4Te3,Pmn2_1,0.9455,4.3545,12.762,30.194,FALSE
CdI2,P-4m2,2.5821,4.3567,4.3567,22.741,TRUE
CdSe,P3m1,0,4.3571,4.3571,56.55,TRUE
Bi2Mo3,Cm,0,4.3577,4.8504,22.034,FALSE
HgI2,P-4m2,1.8585,4.3587,4.3587,23.537,TRUE
SnSb,C2/m,1.3019,4.3594,12.852,24.723,FALSE
SnGe,P3m1,0.2159,4.3608,4.3608,21.077,TRUE
SnSb,P-1,1.0465,4.3608,12.862,25.223,FALSE
AgF,Cmme,1.5244,4.3618,4.3618,24.122,TRUE
Be2Bi,P-4m2,0,4.3631,4.358,22.957,FALSE
Tl3Co,P-6m2,0,4.3644,4.3644,25.13,TRUE
PbF4,P4/mmm,2.5194,4.365,4.365,23.993,TRUE
P,Pbam,0,4.3651,7.4337,24.52,FALSE
PbBrCl,P2_1/m,2.9665,4.3664,7.5468,23.097,FALSE
AuI,P-3m1,1.0557,4.3673,4.3673,23.814,TRUE
ZnTe,P3m1,0,4.3681,4.3681,56.55,TRUE
Sr(BiO2)2,P2_1/m,2.6793,4.3681,6.2775,26.593,FALSE
SbPt,P-6m2,0,4.3684,4.3735,20,FALSE
LiH2IO,Pmc2_1,3.1079,4.3684,5.8248,24.019,FALSE
TlF,P4mm,2.339,4.3691,4.3691,22.485,TRUE
SnClF,P2_1/m,3.8708,4.3693,6.0058,22.876,FALSE
SrFe2Se2O,Pmmn,1.1999,4.3694,9.9119,26.551,FALSE
Hg3SbAsS3,P2_1/c,1.4957,4.3711,19.537,29.427,FALSE
Pt3S4,P2/m,0,4.3713,7.3515,25.182,FALSE
TaCl5,Pmmm,0,4.3713,6.261,23.745,FALSE
AgI,P4/nmm,2.0798,4.372,4.372,23.624,TRUE
KBi2F7,P1,0,4.3721,3.9867,39.249,FALSE
CePb5,Pmmm,0,4.3724,7.0743,23.338,FALSE
CuI,P-6m2,1.4754,4.3724,4.3724,"20.0,""",TRUE
Te4W3,P-3m1,0,4.3731,4.371,29.268,FALSE
Ag3SI,P1,0.6053,4.3731,4.5965,29.898,FALSE
AlF3,Pmc2_1,6.6079,4.3734,4.8318,22.613,FALSE
Sn(SbTe2)2,P-3m1,0.6333,4.3746,4.3746,31.124,TRUE
Ge(BiTe2)2,P-3m1,0.9948,4.3747,4.3747,31.059,TRUE
Mg3Pb,Pmm2,0,4.3752,4.2561,22.353,FALSE
Sn3Ir,P-6m2,0,4.3757,4.3757,24.981,TRUE
SmTe3,P4/nmm,0,4.3761,4.3761,29.325,TRUE
InTe,P-3m1,1.2766,4.3771,4.3771,24.623,TRUE
TlI3,P-1,0.8573,4.3778,9.7468,22.93,FALSE
Ba2Bi3O7,Pmm2,0,4.3786,4.3911,28.756,FALSE
La2I5,P2_1/m,0.2542,4.3789,17.005,25.801,FALSE
TlP,P-6m2,0,4.3803,4.3803,"20.0,""",TRUE
CaI2,Pmma,2.0254,4.3804,7.7086,23.548,FALSE
Si3Sb4,C2,0,4.3807,4.3807,27.841,TRUE
SbPd,P-6m2,0,4.381,4.3815,"20.0,""",TRUE
BaCu,P6/mmm,0,4.3832,4.3832,24.532,TRUE
Ca3C,P4mm,0,4.3834,4.3778,22.353,FALSE
CaSn2F6,P-1,3.9867,4.3837,7.1942,27.481,FALSE
CaCl2,P-4m2,5.6388,4.3839,4.3839,22.656,TRUE
ZnTe,P3m1,0,4.385,4.385,56.585,TRUE
NdPb5,Pmmm,0,4.385,7.047,23.414,FALSE
PbSe,P4/nmm,1.3248,4.387,4.3868,22.947,FALSE
Ca3(HO3)2,C2/m,1.7766,4.3872,5.2869,26.347,FALSE
Bi9F2,P2_1/m,0,4.3874,13.12,34.941,FALSE
SrThBr6,Pmma,2.4328,4.3874,9.2579,30.826,FALSE
AlI,P4mm,1.5772,4.3882,4.3882,22.485,TRUE
Bi2O3,Pmn2_1,3.0245,4.393,5.6421,23.935,FALSE
SrLaBr5,P2_1/m,3.1172,4.393,15.994,25.012,FALSE
HgI2,C2/m,1.9596,4.3938,4.3938,23.713,TRUE
B2O3,P321,4.4803,4.3944,4.3944,24.184,TRUE
B2O3,P-62m,5.1866,4.3951,4.3951,21.655,TRUE
NdTe3,P4/nmm,0,4.3959,4.3987,29.439,FALSE
BiTeI,P3m1,1.5744,4.3967,4.3967,23.93,TRUE
BaCl2,C2,4.017,4.397,7.9063,24.448,FALSE
As2Se3,Pc,1.6149,4.3973,12.108,23.079,FALSE
V2ZnS5,Pmmn,0,4.3975,14.196,24.981,FALSE
Cu3OF5,P2_1,0,4.3977,5.2638,27.003,FALSE
NaI,P4/mmm,3.8631,4.3977,4.3977,"20.0,""",TRUE
In3SbTe2,P4/nmm,0,4.3979,4.4058,35.416,FALSE
TaCl5,Pmma,0.1971,4.3981,11.119,23.595,FALSE
BI,P4mm,2.1098,4.3982,4.3982,22.485,TRUE
Sb2Te4Pb,P-3m1,0.7736,4.3984,4.3984,31.246,TRUE
LaI3,Pmmn,2.1172,4.3999,10.088,24.855,FALSE
SrCl2,P-3m1,5.8943,4.3999,4.3999,23.529,TRUE
UTe3,P4/nmm,0,4.4015,4.4542,28.821,FALSE
CaMnSn,P4/nmm,0,4.4022,4.4022,24.88,TRUE
HgSe,P3m1,0,4.4032,4.4054,56.55,FALSE
CF3,P1,3.3165,4.4053,7.4504,24.138,FALSE
As2S3,Pc,2.1307,4.4055,11.413,22.843,FALSE
BeAg,P6/mmm,0,4.4057,4.4057,24.159,TRUE
CaLaI5,Pmma,2.1241,4.4058,18.957,24.546,FALSE
K2Cl,P-3m1,0,4.4063,4.4063,23.407,TRUE
YTiF5,Pmmm,0,4.4064,8.4594,23.437,FALSE
Bi4Cl,P2/m,0,4.4073,13.04,33.722,FALSE
YNiF5,Pmmm,0,4.4075,8.1859,24.382,FALSE
Bi2W3,Cm,0,4.4077,4.4106,22.034,FALSE
RbSbBrF3,P-1,3.7601,4.408,7.5204,26.383,FALSE
PrTe3,P4/nmm,0,4.4097,4.4117,29.512,FALSE
Sb2Pb,Pmc2_1,0.3305,4.4098,11.78,25.607,FALSE
Bi2Te3,P2_1/m,1.0126,4.4108,10.969,26.222,FALSE
AuF2,P2_1/c,0.3493,4.4113,6.2014,21.694,FALSE
AuI2,P2_1/c,0,4.4122,7.3795,21.757,FALSE
NaC2,P4mm,0,4.4124,4.4124,24.32,TRUE
PbBr2,P2_1/m,2.8199,4.4127,7.5952,23.114,FALSE
SiPb,P3m1,0.217,4.4142,4.4142,20.769,TRUE
ThTe3,Pmmn,0.6488,4.4146,6.2566,27.21,FALSE
Bi2Te3,Pc,0.8938,4.4152,14.683,23.079,FALSE
Bi2Te3,P2_1/m,1.0079,4.4154,10.75,24.816,FALSE
YCoF5,Pmmm,0.0906,4.416,8.2169,24.383,FALSE
Tl2Te5,C2/m,0.4667,4.4161,8.5507,24.105,FALSE
Tl2Te5,P1,0.4689,4.4169,8.5756,24.092,FALSE
NO2,P1,1.6399,4.4175,4.4667,22.41,FALSE
Ca3Pb3I14,Pm,0,4.4183,25.889,24.433,FALSE
Bi9Cl2,P2_1/m,0,4.4194,13.097,34.948,FALSE
Bi4Br,P2/m,0,4.4195,13.167,33.723,FALSE
ZrS,P4/nmm,0,4.4201,4.4201,22.865,TRUE
Sb,P2_1/m,0,4.4216,4.5422,23.344,FALSE
AlBr,P4/nmm,2.1092,4.4217,4.4217,23.967,TRUE
Bi2Te3,P-3m1,0.9707,4.4221,4.4221,27.568,TRUE
ZnTe,P3m1,1.3438,4.4232,4.4232,20.166,TRUE
Sr2P,P-3m1,0,4.4254,4.4254,23.013,TRUE
Ag(AuS)2,Pc,0,4.4262,7.0951,23.398,FALSE
Si3Bi4,C2,0,4.4266,4.4266,27.823,TRUE
CaC2,Cmme,0,4.4266,4.5231,23.148,FALSE
BeAu,P6/mmm,0,4.4298,4.4298,24.159,TRUE
TePb,Pbcm,0.6221,4.4299,12.327,22.971,FALSE
CeTe3,P4/nmm,0,4.4304,4.4288,29.125,FALSE
Sn4SI6,P2_1/m,1.7064,4.4312,26.52,25.396,FALSE
Li2AgSn2,P-4m2,0,4.432,4.432,23.188,TRUE
In2Te3,Cm,0.093,4.4324,7.6951,29.441,FALSE
NbCl5,Pmmm,0,4.433,6.1803,23.745,FALSE
SrH2I2O,Pmn2_1,4.2762,4.4336,9.2707,23.729,FALSE
Ag18S11,P1,0,4.4342,3.9557,52.596,FALSE
RhPb3,P-6m2,0,4.4342,4.4342,24.981,TRUE
TlCl,P4mm,1.9927,4.4355,4.4355,22.485,TRUE
YbI2,P-3m1,3.9824,4.4357,4.4357,23.554,TRUE
LaTe3,P4/nmm,0,4.4369,4.4402,29.558,FALSE
Bi9Br2,P2_1/m,0,4.4373,13.178,34.95,FALSE
P2S3,Pc,2.3662,4.4389,10.761,23.079,FALSE
Be5Co,Pmc2_1,0,4.439,3.9895,25.788,FALSE
InAs,P-6m2,0,4.4391,4.4391,"20.0,""",TRUE
TlCl,P4/nmm,3.4832,4.4402,4.4822,23.633,FALSE
Nd2Te5,P4/nmm,0,4.4409,4.4424,38.68,FALSE
Sr2P,Pmmn,0,4.4427,5.9913,26.071,FALSE
YCrF5,Pmmm,0,4.4431,8.3815,24.388,FALSE
PCl3,P-6m2,0.7115,4.4435,4.4435,24.623,TRUE
YWF5,Pmmm,0.3631,4.4459,8.6697,24.432,FALSE
WF2,P2_1/c,1.6746,4.4485,6.1914,21.609,FALSE
InAs,P4/nmm,0,4.4486,4.4486,23.942,TRUE
Sn(BiTe2)2,P-3m1,0.7931,4.449,4.449,31.307,TRUE
PrPb5,Pmmm,0,4.4496,7.0627,23.394,FALSE
GeO,Pbcm,2.9608,4.4497,5.1187,22.719,FALSE
YFeF5,Pmmm,0,4.4499,8.3274,24.393,FALSE
AgHgSBr,Pmma,1.2353,4.4528,9.9659,30.048,FALSE
CaLaI5,Pmc2_1,2.1965,4.4532,18.118,24.677,FALSE
Xe(OF)2,Amm2,1.995,4.4533,4.4533,24.086,TRUE
SrP2,C2/m,0,4.4537,7.4543,24.98,FALSE
YVF5,Pmmm,0.8961,4.454,8.391,24.456,FALSE
SrFe2S2O,Pmmn,0.6867,4.4542,9.3299,26.605,FALSE
GaSb,P-6m2,0,4.455,4.455,"20.0,""",TRUE
Bi4I,P2/m,0,4.455,13.301,33.576,FALSE
As2W,P-1,0,4.4556,6.1533,22.587,FALSE
BaLaCl5,P2_1/m,3.7746,4.4572,15.443,24.626,FALSE
Zn2CrN2,C2/m,0,4.4573,5.3203,23.295,FALSE
AlSb,P-6m2,0.5455,4.4574,4.4559,20,FALSE
In3Rh,P-6m2,0,4.4591,4.4591,25.13,TRUE
Bi9I2,P2_1/m,0,4.4603,13.315,34.949,FALSE
Cu2SO4,C222,2.1968,4.4618,5.7733,21.774,FALSE
SbTe,P4/nmm,0,4.463,4.463,23.274,TRUE
LiAs3,P-6m2,0,4.4639,4.4639,22.3,TRUE
HgS,P4/nmm,1.0631,4.4643,4.4643,22.99,TRUE
BaCl2,Pmma,3.284,4.4643,8.3246,23.548,FALSE
MoAs2,P-1,0,4.4644,6.1931,22.583,FALSE
GaF3,Pmc2_1,4.5444,4.4647,5.0465,22.613,FALSE
TlTe,P-1,0.6525,4.465,13.278,25.588,FALSE
La2GeI2,P-3m1,0.402,4.4657,4.4657,27.49,TRUE
Bi2Te4Pb,P-3m1,1.045,4.4661,4.4661,31.417,TRUE
ZrSiO4,P2/c,3.9934,4.4662,4.8745,24.37,FALSE
BiTe,P-3m1,0,4.4676,4.4676,61.929,TRUE
Pb5(SI3)2,C2/m,2.3291,4.4682,15.598,26.798,FALSE
CaI2,C2,3.6194,4.4685,9.8581,24.632,FALSE
Bi2O3,P2_1/m,3.0424,4.4697,8.9237,22.279,FALSE
NbCl5,Pmma,0,4.4698,10.997,23.595,FALSE
ZnSb,P3m1,0,4.4703,4.4703,20.274,TRUE
YMnF5,Pmmm,0.3842,4.4704,8.3831,24.392,FALSE
BiSb,P1,0.4838,4.4733,4.7975,22.475,FALSE
TlSe,P-6m2,0.5426,4.4743,4.4743,24.982,TRUE
CdS,P4/nmm,2.289,4.4745,4.4745,22.99,TRUE
Sn2O3,Pmmn,2.0244,4.4755,4.5042,25.527,FALSE
TlTe,P-6m2,0.5957,4.4786,4.4786,28.11,TRUE
SbPb,C2/m,0.6232,4.4786,13.264,24.72,FALSE
AuBr,P3m1,0.1499,4.4788,4.4788,20.195,TRUE
Be2Bi,P6/mmm,0,4.4797,4.4797,23.013,TRUE
Tl2Te3,P1,0.1063,4.4825,8.1939,29.529,FALSE
ZrSe,P4/nmm,0,4.4838,4.4838,22.865,TRUE
TlTe,C2/m,0.8456,4.4845,6.2683,23.399,FALSE
CaI2,P-3m1,3.8625,4.485,4.485,23.529,TRUE
Ca3SiBr2,Cm,0,4.4851,4.537,28.988,FALSE
Be2BO5,C2,0.1784,4.4853,4.4914,24.312,FALSE
Sb2Pd,C2/m,0,4.486,4.4424,25.136,FALSE
SnBi,C2/m,0.9206,4.486,13.168,24.76,FALSE
SnBi,P-1,0.7011,4.4867,13.179,25.228,FALSE
AgI,P-3m1,2.0285,4.4868,4.4868,23.64,TRUE
Bi2Te5Pb2,P-3m1,0,4.487,4.487,35.736,TRUE
InTe,P-6m2,0.249,4.4873,4.4873,27.832,TRUE
Ca3SiBr2,Cm,0,4.4881,4.4881,28.713,TRUE
SbPb,P-1,0.3671,4.489,13.278,25.224,FALSE
SrI2,C2/m,2.8825,4.4897,8.6319,24.222,FALSE
SN,Pmc2_1,0,4.4898,13,23.134,FALSE
Cu3OF5,P-1,0,4.4899,5.3032,26.761,FALSE
Sn3As4,C2,0,4.4921,4.4921,27.858,TRUE
BiTe,C2/m,0,4.4927,4.4927,23.436,TRUE
InTe,P3m1,0,4.4937,4.4937,21.25,TRUE
TlTe,P-3m1,0.5033,4.4947,4.4947,24.623,TRUE
BaThBr6,Pmma,2.5188,4.4947,9.5011,27.215,FALSE
CdSe,P4/nmm,2.0654,4.4951,4.4951,22.99,TRUE
SnI2,C2/m,2.0978,4.4954,11.896,24.432,FALSE
LiMnTe2,P3m1,0,4.497,4.497,25.14,TRUE
NaNO2,P2_1/m,0,4.4981,4.781,26.357,FALSE
SnBi2,Pmc2_1,0.528,4.4982,12.058,25.607,FALSE
In3Ir,P-6m2,0,4.4988,4.4988,25.13,TRUE
CrSb2,P2/m,0,4.4996,4.501,22.89,FALSE
SnO,Pbcm,2.24,4.4996,5.6046,22.719,FALSE
Tl4Te3,Pmn2_1,0.3649,4.4999,12.807,30.194,FALSE
Ge3Bi4,C2,0,4.5002,4.5002,27.831,TRUE
K5NO4,P1,0,4.5009,5.7225,27.718,FALSE
P2O3,Pc,3.7293,4.502,4.9501,23.935,FALSE
Pd3S4,P2/m,0,4.5037,7.1206,25.156,FALSE
RhC4,P4/nbm,0,4.5047,4.5047,22.924,TRUE
HgAs,P-6m2,0,4.5066,4.5066,20.274,TRUE
RbC2,P4/nmm,0.4991,4.5067,4.5067,25.128,TRUE
SbAsO3,Pc,3.9209,4.507,5.4205,24.131,FALSE
TlSe,P3m1,0.0092,4.5073,4.5073,21.25,TRUE
ScC3,P-6m2,0,4.5081,4.5079,20,FALSE
NiBr2,P-1,0,4.5083,4.4667,25.019,FALSE
I,Pbam,0.9824,4.5084,9.8802,19.948,FALSE
K2Cl,Pmma,0,4.5096,8.3155,23.993,FALSE
BaF2,P-4m2,5.7381,4.5101,4.5101,22.656,TRUE
IrPb3,P-6m2,0,4.5103,4.5103,24.981,TRUE
CaPbI4,P2_1/m,3.0145,4.5104,15.716,23.723,FALSE
P2O3,P2_1,3.8505,4.5127,7.7678,22.246,FALSE
Ca3SiBr2,Pmmm,0.7999,4.5129,5.8445,24.856,FALSE
CaPbI4,P2/m,2.9792,4.5172,7.9089,23.816,FALSE
P2Se3,Pc,1.821,4.5174,11.428,22.708,FALSE
CdAs,P-6m2,0,4.5209,4.5209,20.274,TRUE
GePb,P3m1,0,4.5214,4.5214,20.769,TRUE
BiPd,P-6m2,0,4.5218,4.528,20,FALSE
SrC2,Cmme,0,4.5235,4.6869,23.148,FALSE
TlPbI3,Pmma,2.0066,4.524,12.917,27.708,FALSE
KH2I3O,Pc,1.9436,4.5241,8.4493,29.205,FALSE
BaIF,P4/nmm,4.3368,4.5241,4.5241,25.642,TRUE
BiTe,P4/nmm,0,4.5242,4.5242,23.274,TRUE
KBr,P4/mmm,4.4071,4.5251,4.5251,"20.0,""",TRUE
Te3As2,Pc,1.0093,4.5253,13.04,22.708,FALSE
AgClO2,Cmme,1.2302,4.5263,4.5263,24.65,TRUE
AgHgSI,Pmma,0.8623,4.5264,10.236,30.668,FALSE
Be5Rh,Pmc2_1,0,4.5268,4.347,25.788,FALSE
IrC4,P4/nbm,0,4.5269,4.5269,22.924,TRUE
BeF2,C2,7.188,4.5291,4.8465,22.655,FALSE
K2Br,P-3m1,0,4.5294,4.5294,23.407,TRUE
Te3N2,Pc,0.965,4.5299,10.479,23.079,FALSE
Sr2As,P-3m1,0,4.5316,4.5316,23.013,TRUE
RbCl,P4/mmm,4.6021,4.5331,4.5331,"20.0,""",TRUE
Ca2P,P-4m2,0,4.5347,4.5368,22.957,FALSE
KClO3,P2_1/m,5.5369,4.5353,5.5355,24.133,FALSE
BiPt,P-6m2,0,4.5357,4.5394,20,FALSE
Au18S11,P1,0,4.5367,4.0537,52.398,FALSE
Si2O3,P2_1/c,1.423,4.5381,6.5692,25.59,FALSE
AgBr,P-6m2,1.7543,4.5395,4.5395,"20.0,""",TRUE
Sn3Bi4,C2,0,4.5408,4.5408,27.808,TRUE
As2O3,Pc,4.322,4.5425,5.4093,23.912,FALSE
PF3,P2_1/c,4.4809,4.5428,4.991,24.743,FALSE
SiF3,P1,3.8876,4.5433,7.212,24.133,FALSE
SrBr2,P-3m1,5.0827,4.5446,4.5446,23.529,TRUE
Sr2As,Pmmn,0,4.5451,6.1182,26.444,FALSE
MgP,Pmm2,0,4.5457,3.6152,27.111,FALSE
Sb2Te3,Pc,0.8102,4.5475,13.936,23.079,FALSE
HgSe,P4/nmm,0.4754,4.5487,4.5487,22.99,TRUE
Si,Pmmm,0,4.5521,4.5521,22.532,TRUE
Na2I,Pmma,0,4.5569,7.4973,23.993,FALSE
EuTe,P4/mmm,0,4.5571,4.5571,25.905,TRUE
VOF3,P2_1,2.5673,4.5585,4.5956,24.118,FALSE
InI,P4mm,1.414,4.5601,4.5601,22.485,TRUE
ZrTe,P4/nmm,0,4.5613,4.5613,22.865,TRUE
CaBr2,P-4m2,4.8495,4.5615,4.5615,22.656,TRUE
SrMnSn,P4/nmm,0,4.5618,4.5618,25.136,TRUE
BaC2,P-3m1,0.4971,4.5619,4.5619,24.445,TRUE
Te2SO7,Pmn2_1,3.2462,4.562,9.0577,28.852,FALSE
HoCoSn2,Pmmn,0,4.5634,4.3425,29.064,FALSE
NaMnTe2,P3m1,0,4.5641,4.5641,25.655,TRUE
Ge2O5,Pnc2,0.1712,4.5649,5.6282,24.876,FALSE
NaN3,P-6m2,0.6477,4.5649,4.5649,22.3,TRUE
TlAs,P-6m2,0,4.565,4.565,20,TRUE
Bi2Pb,Pmc2_1,0.268,4.566,12.013,25.607,FALSE
AlF,Pmmn,0.92,4.5669,2.6546,23.633,FALSE
KCrIO6,P2_1/c,2.6847,4.5673,14.214,27.911,FALSE
SnTe,Aem2,1.1394,4.568,4.568,22.841,TRUE
SmSI,P-3m1,2.8746,4.568,4.568,27.709,TRUE
Tl3Rh,P-6m2,0,4.5689,4.5689,25.13,TRUE
Pt3Se4,P2/m,0,4.5706,6.8021,25.197,FALSE
SbTe,P-1,0,4.5711,4.8991,22.849,FALSE
GaI,P4mm,2.0287,4.5715,4.5715,22.485,TRUE
LiVBO4,P2_1/m,1.2678,4.5726,5.8456,24.514,FALSE
LiFeBO4,P2_1/m,0.002,4.5748,5.9344,22.539,FALSE
BaLaBr5,P2_1/m,3.2332,4.5751,16.212,24.956,FALSE
SrI2,Pmma,2.1959,4.5765,8.2672,23.548,FALSE
PbI2,P-3m1,2.5868,4.5783,4.5783,23.71,TRUE
KTe2F9,P-1,4.3597,4.5787,8.9799,28.342,FALSE
Mg2Sb,Pmmn,0,4.5817,4.8152,28.402,FALSE
Zn(AsO2)2,P2_1,3.5759,4.5842,5.0443,25.987,FALSE
SeN,Pmc2_1,0.013,4.5845,13.842,23.134,FALSE
BaBr2,Pmma,2.6463,4.5864,8.5631,23.548,FALSE
SnPHO4,Pc,3.645,4.5872,5.8231,26.512,FALSE
CuH4(IO4)2,P2_1/c,0.848,4.5873,11.426,26.292,FALSE
Be5Ir,Pmc2_1,0,4.5901,4.3846,25.788,FALSE
Ba2P,P-3m1,0,4.5925,4.5925,25.233,TRUE
Pd3Se4,P2/m,0,4.5939,4.6613,25.162,FALSE
As3HO6,P2_1,3.8283,4.5948,12.704,22.415,FALSE
P4Pb3,C2,0,4.5955,4.5955,27.863,TRUE
Ca2Sb,P-3m1,0,4.5979,4.5979,23.013,TRUE
Bi,P2_1/m,0.0844,4.5983,4.6006,23.788,FALSE
CdTe,P3m1,0,4.5987,4.5987,56.585,TRUE
SrLaI5,P2_1/m,2.3629,4.5994,17.214,25.51,FALSE
AsCl3,P-6m2,1.1699,4.6007,4.6007,24.623,TRUE
Te3P2,Pc,1.2347,4.6016,12.547,23.079,FALSE
BiPb,P-1,0.3038,4.6022,13.566,24.967,FALSE
RbPbF3,P2_1/m,4.1896,4.6052,4.7197,26.397,FALSE
Ba2P,Pmmn,0,4.6062,6.4606,26.808,FALSE
Rb2Cl,P-3m1,0,4.6075,4.6075,23.407,TRUE
BiTe,P2_1/m,0,4.6075,4.9165,22.849,FALSE
MgAu,P6/mmm,0,4.6081,4.6081,24.159,TRUE
LiFeF4,P-42m,4.1101,4.6093,4.6093,21.578,TRUE
Tl3Ir,P-6m2,0,4.6098,4.6098,25.13,TRUE
MoAs2O7,P2_1/c,2.8827,4.6107,19.206,26.022,FALSE
TlTe,P3m1,0,4.6132,4.6132,21.25,TRUE
MgAg,P6/mmm,0,4.6135,4.6135,24.159,TRUE
Ag(TeMo)6,C2/m,0,4.6138,9.4318,26.567,FALSE
TlAs,P4/nmm,0,4.6148,4.6148,23.942,TRUE
BiPb,C2/m,0.2985,4.6157,13.569,24.728,FALSE
Ag2S,P6/mmm,0,4.6172,4.6172,24.537,TRUE
PdCl2,P-1,0.1593,4.6177,4.6047,24.866,FALSE
CdTe,P4/nmm,1.3042,4.6187,4.6187,22.99,TRUE
TeN,Pmc2_1,0,4.6188,16.907,23.134,FALSE
Li2MnF6,P2_12_12,2.8752,4.6229,4.8323,26.472,FALSE
Mg2Sb,P-3m1,0,4.623,4.623,23.013,TRUE
Au2S,Pmc2_1,1.0821,4.6232,7.0497,23.357,FALSE
TePb,P4/nmm,1.235,4.6234,4.6288,23.352,FALSE
TlF3,Pmc2_1,2.5628,4.6245,5.9013,22.613,FALSE
NdB4,P4/mmm,0,4.6281,4.6281,20.017,TRUE
LaO3,Cmmm,0,4.6282,7.552,22.344,FALSE
TlBr,P4mm,1.8209,4.6285,4.6285,22.485,TRUE
ZnBi,P3m1,0,4.6301,4.6301,20.274,TRUE
InSb,P4/nmm,0,4.6305,4.6305,23.942,TRUE
Au2S,P6/mmm,0,4.6312,4.6312,24.537,TRUE
Na4Br2O,P4/mmm,0,4.6313,4.6313,30.519,TRUE
TlN,P4/nmm,0,4.6317,4.6317,23.942,TRUE
LiCu(PO3)2,P2/c,2.4231,4.6321,10.064,25.913,FALSE
NaMgAs,P4/nmm,0,4.6329,4.6329,29.123,TRUE
IrC3,P4/mbm,0,4.633,4.633,25.635,TRUE
Ge3Sb4,C2,0,4.6338,4.6338,27.843,TRUE
TlN5,Pmc2_1,2.7206,4.6382,9.1299,26.806,FALSE
Ca2As,P-4m2,0,4.6385,4.698,22.957,FALSE
PaN2,P4/mmm,0,4.6389,4.6389,22.513,TRUE
GaBi,P-6m2,0,4.6399,4.6399,"20.0,""",TRUE
As2O3,P2_1,3.9015,4.6403,8.1993,22.195,FALSE
ReF3,C2/m,0,4.6406,4.6406,22.061,TRUE
HgTe,P4/nmm,0,4.6412,4.6412,22.99,TRUE
TlBr,P4/nmm,2.9148,4.6419,4.6663,23.438,FALSE
CaN2,Cm,0.0783,4.6423,6.032,24.98,FALSE
InF3,Pmc2_1,4.1775,4.6424,5.5753,22.613,FALSE
SeN,Pc,0.0228,4.6438,15.044,23.12,FALSE
SnPO3F,Pc,3.8544,4.6456,5.967,24.073,FALSE
Cr3O8,P-1,0.8854,4.6506,4.918,25.603,FALSE
TeHO3,P2_1,2.5196,4.6523,8.068,25.16,FALSE
Mn(CO3)2,P-3,1.3293,4.6526,4.6526,22.248,TRUE
TeN,Pc,0.1038,4.6538,19.488,23.12,FALSE
Sn,P-3m1,0.0008,4.6588,4.6578,20.688,FALSE
SnPO3,Pc,0.3769,4.6611,5.997,24.305,FALSE
MnF4,P2_1/c,0.0326,4.6624,5.3326,23.11,FALSE
TlAsO4,P-42m,1.4709,4.6647,4.6647,22.22,TRUE
Be(BC)2,Pmm2,0,4.6679,5.4518,23.639,FALSE
TlI,P4mm,1.2169,4.6681,4.6681,22.485,TRUE
CaAg,P6/mmm,0,4.671,4.671,24.159,TRUE
CdTe,P3m1,0,4.6721,4.6693,56.55,FALSE
I5N,P2/m,0,4.6722,9.9996,23.758,FALSE
PBr3,P-6m2,0.3888,4.6722,4.6722,24.623,TRUE
Ca2Bi,P-3m1,0,4.6726,4.6726,23.013,TRUE
RbPbF3,P-1,4.0259,4.6733,4.6766,36.83,FALSE
Ag2S,P2_1/m,1.5692,4.6746,6.0541,25.796,FALSE
Mg3P2(HO)16,P2/m,3.7554,4.675,10.087,27.546,FALSE
NaN3,P2/m,0.891,4.6815,6.676,"20.0,""",FALSE
Ag2Se,P6/mmm,0,4.6826,4.6826,24.537,TRUE
BaC2,Cmme,0,4.6834,4.9023,23.148,FALSE
InBi,P4/nmm,0,4.6857,4.6857,23.982,TRUE
C2O3,P2_1/m,2.9286,4.6859,6.4018,25.956,FALSE
PtCl2,P-1,0.0325,4.6865,4.4136,24.768,FALSE
HgTe,P3m1,0,4.6884,4.6879,56.585,FALSE
Pt(NO3)2,P-3,0,4.6912,4.6912,22.565,TRUE
LiNiPO4,P2_1/m,3.7121,4.6914,6.1373,23.151,FALSE
SnH,P-3m1,0.5032,4.6923,4.6923,23.722,TRUE
CaAu,P6/mmm,0,4.6928,4.6928,24.159,TRUE
Sn3H,P-3m1,0,4.693,4.693,30.11,TRUE
LiCoSiO4,P2_1/m,0.8125,4.694,6.2486,24.398,FALSE
Sr3C,P4mm,0,4.6942,4.6945,22.353,TRUE
HgTe,P3m1,0,4.695,4.6941,56.55,FALSE
Ba2As,P-3m1,0,4.6978,4.6978,22.747,TRUE
BF,P4/nmm,3.9398,4.6983,4.6983,14.943,TRUE
InF,Pbcm,2.1104,4.6986,5.747,23.094,FALSE
Ag18Se11,P1,0,4.6999,4.0454,52.47,FALSE
AuI,P-6m2,0.0432,4.701,4.701,"20.0,""",TRUE
CuSeO3,P-1,0,4.7038,10.589,27.247,FALSE
AlCl3,Pmma,3.3129,4.7049,6.7568,22.97,FALSE
K2I,P-3m1,0,4.7051,4.7051,23.407,TRUE
Au2Se,Pmma,0.2605,4.706,6.2306,23.07,FALSE
Au2Se,P6/mmm,0,4.7063,4.7063,24.537,TRUE
I(NO3)2,P-3,0,4.7132,4.7132,24.836,TRUE
Ba2As,Pmmn,0,4.7143,6.5645,27.172,FALSE
S(IO3)2,C2,2.1161,4.7171,7.9917,21.857,FALSE
LiRe(OF2)2,P-42_1m,3.097,4.7171,4.7171,27.12,TRUE
MgV2S5,Pmmn,0.7,4.7185,13.736,25.064,FALSE
LiCrSiO4,P2_1/m,3.0125,4.7186,6.2096,24.428,FALSE
C3N4,C2,2.2661,4.7201,4.7036,20.784,FALSE
SrAg,P6/mmm,0,4.7205,4.7205,24.159,TRUE
C2O3,P2_1/c,6.0529,4.7207,7.6433,25.553,FALSE
K2Br,Pmma,0,4.7235,8.5419,23.993,FALSE
BeF2,C2/m,8.2824,4.7244,4.7255,23.517,FALSE
Ca2Sb,Pmmn,0,4.7257,6.0769,25.671,FALSE
CN3,P-3m1,0.0009,4.726,4.726,21.405,TRUE
TeHO3,P1,1.8807,4.7275,8.0077,25.764,FALSE
Li2Cr3(CO3)6,P-1,0,4.7277,12.518,23.601,FALSE
LiBiO2,Pbcm,2.2825,4.7296,5.277,26.282,FALSE
TlTe,P-6m2,0.4846,4.7303,4.7303,27.147,TRUE
CdHgAsBr,Pmma,1.3832,4.7304,10.984,29.698,FALSE
BaCaI4,P2/m,3.7336,4.7304,8.3659,23.798,FALSE
SrI2,P-3m1,4.0722,4.731,4.731,22.742,TRUE
Fe3P2(HO)16,P2/m,2.3251,4.7327,10.19,27.067,FALSE
LiCoPO4,P2_1/m,2.7095,4.7336,6.18,24.434,FALSE
HgTe,P3m1,0.006,4.734,4.734,20.166,TRUE
LiClO2,P-42_1m,3.4167,4.7344,4.7344,23.756,TRUE
SiCl4,P4/mmm,1.3023,4.7366,4.7366,23.993,TRUE
SbPO4,Pmc2_1,3.1908,4.7374,9.7021,22.399,FALSE
ScF3,Pmc2_1,6.0864,4.7389,5.3442,22.434,FALSE
HgSBr,P2_1/m,0,4.7391,8.0214,22.913,FALSE
CuPO3,P2_1/c,1.215,4.7401,12.14,27.977,FALSE
CrF4,P1,1.821,4.7437,4.9567,22.737,FALSE
CaI2,P-4m2,4.0132,4.744,4.744,22.656,TRUE
LiFeSiO4,P2_1/m,2.1525,4.7461,6.2289,24.476,FALSE
LiVSiO4,P2_1/m,2.3013,4.7466,6.291,24.439,FALSE
As4Pb3,C2,0,4.7475,4.7475,27.856,TRUE
NaEr(SO4)2,P2_1/m,5.1483,4.7479,6.7506,30.718,FALSE
Fe(CO3)2,P-3,0,4.7481,4.7481,22.326,TRUE
Ni(ClO4)2,P-3,4.0315,4.7501,4.7501,26.356,TRUE
TlSb,P4/nmm,0,4.7516,4.7516,23.942,TRUE
As3(HO2)5,P-1,3.4169,4.752,7.4966,26.99,FALSE
GeWO4,P2/c,2.5046,4.7525,5.0532,24.399,FALSE
Li2Mn(PO4)2,P-1,1.3615,4.7536,4.9054,29.105,FALSE
Zn3N,P6/mmm,0,4.7538,4.7538,20,TRUE
Ca3Si,P4mm,0.1315,4.7539,4.7592,22.353,FALSE
As,Pbam,0,4.7546,7.4636,24.52,FALSE
Rb2Br,P-3m1,0,4.7547,4.7547,23.407,TRUE
BaP2,C2/m,0.306,4.7558,7.8511,24.98,FALSE
Li2Te2O5,P2_1/c,3.7203,4.7563,12.264,26.761,FALSE
InSb,P-6m2,0,4.7598,4.7598,"20.0,""",TRUE
CrPO4,C2/m,1.9945,4.7598,4.7598,26.507,TRUE
BaLaI5,P2_1/m,2.4471,4.7614,17.462,25.424,FALSE
Mn2F5,P2/c,0,4.7615,5.2996,25.144,FALSE
Ag2Se,Pmma,0.9976,4.7616,5.9908,23.357,FALSE
Pb2O3,P4/nmm,1.8143,4.7633,4.782,25.526,FALSE
BaCl2,P-3m1,5.7191,4.7646,4.7646,23.529,TRUE
NpCl3,P-6m2,0.0017,4.7652,4.7652,24.791,TRUE
AgI,P3m1,1.7484,4.7664,4.7664,20.195,TRUE
Mg2Bi,Pmmn,0,4.7678,4.8928,29.004,FALSE
GaF,Pbcm,2.8418,4.7681,5.2723,23.094,FALSE