Formula,Space Group,Band Gap,a,b,c,a=b
ErSCl,Pmmn,3.0041,3.9286,5.2971,25.853,FALSE
SnSe2,P-4m2,0.8907,3.9292,3.9292,22.855,TRUE
LiMnF4,Pmma,0,3.9293,8.2582,25.474,FALSE
SmBrO,P4/nmm,4.6918,3.9294,3.9294,25.725,TRUE
Y2Br5,P2_1/m,0.3415,3.9298,15.288,26.519,FALSE
Dy2(BiO2)7,Cm,0,3.9299,10.571,27.922,FALSE
HgCl2,P-4m2,2.4503,3.9301,3.9301,23.537,TRUE
SnP,C2/m,1.5375,3.9307,11.899,24.728,FALSE
CuTe,P-1,0,3.931,6.5315,25.443,FALSE
TbBr3,Pmmn,2.9071,3.9312,9.0942,23.98,FALSE
SbS,P-1,0,3.9313,4.8947,22.849,FALSE
TiTe5,Pmmn,0,3.9315,13.769,25.297,FALSE
NbBr2O,Pmm2,0.8354,3.9317,7.0512,24.214,FALSE
U4Te3O4,P4/mmm,0,3.9323,3.9323,31.799,TRUE
TePd,P3m1,0,3.9326,3.9326,21.231,TRUE
Bi2O3,P1,1.0835,3.933,3.8869,38.26,FALSE
LiN3,P2/m,1.2487,3.9331,6.5642,"20.0,""",FALSE
CeS,P4/nmm,0,3.9334,3.9334,23.21,TRUE
BiCl3,Pmmn,2.917,3.9337,8.5789,23.123,FALSE
FeBiO3,P4mm,0,3.9344,3.9344,23.952,TRUE
Br3N,P1,0.9585,3.9344,3.9426,25.828,FALSE
Ba2Ti3O7,Pmm2,0,3.9345,3.9959,28.149,FALSE
Tb2Si,P-3m1,0,3.9349,3.9349,22.716,TRUE
YI,P-3m1,0,3.9349,3.9349,27.09,TRUE
Ba2Tl2CuO6,P4/mmm,0,3.9351,3.9351,33.448,TRUE
LuSBr,Pmmn,2.9225,3.9353,5.5251,26.041,FALSE
Sr2Cu(ClO)2,P4/mmm,0,3.9357,3.9357,25.861,TRUE
UBr3,Pmmn,0,3.9364,9.1633,24.951,FALSE
SnP,P-1,1.4322,3.9365,11.891,25.221,FALSE
YCo,P6/mmm,0,3.9367,3.9367,23.168,TRUE
BBr,P4mm,1.8286,3.9367,3.9367,22.485,TRUE
Ta3(OF)5,Pmmm,2.2029,3.9368,4.0067,31.577,FALSE
YSe3,P4/nmm,0,3.9375,3.9376,29.216,TRUE
BiBrO,P4/nmm,2.4111,3.9375,3.9375,25.731,TRUE
Gd2Br3,C2/m,0.149,3.9379,10.073,25.613,FALSE
NbI2O,Pmm2,0.7807,3.9379,7.5373,24.599,FALSE
CeGe2,P4/mmm,0,3.9381,3.9381,22.585,TRUE
Sr2FeClO3,P4/nmm,1.0212,3.9385,3.9385,32.304,TRUE
TiGeTe6,P2_1/m,0.4124,3.9387,17.873,24.689,FALSE
PuIO,P4/nmm,0,3.939,3.939,25.947,TRUE
CoI2,P-3m1,0,3.939,3.939,23.069,TRUE
Te3P2,P-3m1,0.328,3.9391,3.9391,27.04,TRUE
CeAl3Cu,P4mm,0,3.9396,3.9396,23.614,TRUE
LaI2,P4/mmm,0,3.9396,3.9396,23.801,TRUE
InS,P-6m2,0.3283,3.9396,3.9396,24.33,TRUE
InS,P-1,2.0391,3.9398,5.879,23.409,FALSE
RbBiF4,P1,0,3.9408,4.3648,60.338,FALSE
Te4Ru3,P2_1/m,0,3.9412,6.2957,28.106,FALSE
SiTe2,P-4m2,0.2806,3.9413,3.9413,22.855,TRUE
CrI2,C2/m,0.2531,3.9415,4.2703,23.265,FALSE
YIO,P4/nmm,3.5429,3.9415,3.9415,26.053,TRUE
AlBr,P4mm,0.7582,3.9418,3.9418,22.485,TRUE
N2,Pm,1.9919,3.9422,6.5748,23.456,FALSE
Ba2Ti3O8,P4/mmm,0.7437,3.9425,3.9426,28.254,TRUE
TbI,P-3m1,0,3.9431,3.9431,26.638,TRUE
Sr3Cr2S2O5,P4/mmm,0,3.9432,3.9432,28.83,TRUE
K2Bi3F11,P1,0,3.9433,4.3465,35.981,FALSE
SiGe,P3m1,0.0736,3.9435,3.9435,20.769,TRUE
AuCl,P4/nmm,0.3341,3.9439,3.9439,23.624,TRUE
B13N2,P-3m1,0,3.9441,3.9441,25.085,TRUE
SnClF,P4/nmm,2.5689,3.9446,3.9446,25.145,TRUE
TcTe,P4/nmm,0,3.9447,3.9447,23.119,TRUE
Er6I7,C2/m,0,3.9447,10.929,29.104,FALSE
NbTe,P4/nmm,0,3.9452,3.9452,23.448,TRUE
AlP,P-6m2,2.2554,3.9453,3.9471,20,FALSE
HgNCl,Pmma,0.1706,3.9455,7.4037,22.802,FALSE
GeTe,P3m1,1.7502,3.9455,3.9455,21.935,TRUE
YSe,P4/nmm,0,3.9458,3.9458,23.289,TRUE
Sr2Ce,P-6m2,0,3.9458,3.9458,25.882,TRUE
PbF2,P-3m1,3.4659,3.9459,3.9459,23.732,TRUE
CeBrO,P4/nmm,0,3.9465,3.9465,25.649,TRUE
Be2As,P6/mmm,0,3.9487,3.9487,23.013,TRUE
TePt,P4/nmm,0,3.9502,3.9502,22.999,TRUE
SnAs2,Pmc2_1,0.7724,3.9502,10.904,25.607,FALSE
TlInS2,P1,1.5931,3.9509,5.0225,23.424,FALSE
Tl2S3,P-3m1,0.4496,3.9515,3.9515,26.98,TRUE
ReTe,P4/nmm,0,3.952,3.952,23.119,TRUE
SmZnPO,P-3m1,1.7118,3.9526,3.9526,28.465,TRUE
ErCoSi2,P4/nmm,0,3.953,3.9533,26.74,TRUE
Nb2Ge2O7,Pmc2_1,1.4946,3.9532,5.7413,35.321,FALSE
Cu4Bi7S12,P2/m,0,3.9534,15.402,27.612,FALSE
SrTa2O7,P4/mmm,0,3.9537,3.9537,28.042,TRUE
InCl,P4mm,0.9418,3.9537,3.9537,22.485,TRUE
AgCl2,P2_1/c,0,3.954,6.5171,21.631,FALSE
ZnCr2S5,Pmmn,0,3.9544,13.675,23.593,FALSE
O5F2,P2_1,0.6772,3.9547,9.5277,23.194,FALSE
CeZnPO,P-3m1,0,3.9553,3.9553,28.507,TRUE
IrSe,P4/nmm,0,3.9554,3.9554,22.797,TRUE
Mo2O5,Pmmn,1.5426,3.9572,11.566,25.358,FALSE
ScO3,P-1,0,3.9574,6.5236,22.515,FALSE
ScI2,P-6m2,0.0892,3.9576,3.9576,23.825,TRUE
Li3MnP2,P-4m2,0,3.9578,3.9578,25.618,TRUE
NiF2,P2_1/m,4.1481,3.9586,3.5377,24.915,FALSE
GaP,P4/nmm,0,3.959,3.959,23.942,TRUE
LiVF4,P-1,1.9367,3.9591,12.984,27.438,FALSE
SiBr2,P-3m1,1.8341,3.9592,3.9592,23.732,TRUE
AuBr,Pmma,0,3.9593,3.767,23.042,FALSE
Li2CuP,P-6m2,0,3.9593,3.9593,22.327,TRUE
Sr3Fe2Cl2O5,P4/mmm,0.8718,3.9597,3.9597,29.852,TRUE
AlP,P4/nmm,1.0533,3.96,3.96,23.942,TRUE
HfTe3,Pmmn,0,3.9606,5.9402,26.856,FALSE
Sr2FeBrO3,P4/nmm,1.0727,3.9615,3.9615,32.726,TRUE
Bi2Pt,P2_1/m,0,3.9618,6.0081,24.541,FALSE
AgF,P-3m1,0.9298,3.962,3.962,23.814,TRUE
Mg2P,P-3m1,0,3.9623,3.9623,23.013,TRUE
SiS,Pmna,0.5016,3.9628,6.6621,24.071,FALSE
W2O5,Pmmn,2.4328,3.9631,11.794,24.454,FALSE
Sr2Cd,P4/mmm,0,3.9642,3.9642,23.983,TRUE
Ga3Co,P-6m2,0,3.9644,3.9644,25.13,TRUE
SrTa2H2O7,P4/mmm,2.2241,3.9644,3.9644,29.87,TRUE
AsSeI,P2_1/c,1.4228,3.9649,13.53,24.008,FALSE
BiOF,P-3m1,3.4159,3.9651,3.9651,24.775,TRUE
Tb2Ge,P-3m1,0,3.9652,3.9652,22.716,TRUE
CdCl2,C2,3.6665,3.9668,3.9516,22.75,FALSE
Y4CI5,Pmmm,0,3.9669,8.4781,26.262,FALSE
Bi2S2O,P4/nmm,0.9896,3.967,3.967,31.222,TRUE
NdCl3,Pmmn,3.7227,3.9671,8.656,24.388,FALSE
CrBr2,P2_1/c,0.3239,3.9674,6.5588,21.515,FALSE
Sr2Cu(BrO)2,P4/mmm,0,3.9683,3.9683,26.206,TRUE
Sr2MnSO3,P4/nmm,0,3.9689,3.9689,31.173,TRUE
Ba2N,P-3m1,0,3.9709,3.9709,23.013,TRUE
KH4O2F,Pmc2_1,4.9424,3.9711,6.992,24.233,FALSE
NaCSN,Pmn2_1,4.105,3.9715,5.7821,24.559,FALSE
TePt,P-3m1,0,3.972,3.972,23.95,TRUE
KC2N3,P2_1/m,4.2912,3.9729,8.5008,24.375,FALSE
Sr3Co2S2O5,P4/mmm,0,3.9734,3.9734,28.65,TRUE
CuHgSCl,Pmc2_1,0.6755,3.9734,9.9012,28.594,FALSE
K2F,P-3m1,0,3.9736,3.9736,23.407,TRUE
CdBiSe2Br,Pmc2_1,0.7898,3.9739,11.995,25.913,FALSE
Ba2TiO4,P4/mmm,1.9356,3.9745,3.9747,23.948,TRUE
YbSi2Ni,P4/nmm,0,3.975,3.9697,27.122,FALSE
PdSe,P-3m1,0,3.9751,3.9751,23.822,TRUE
HfTe3,P2_1/m,0,3.9764,5.9616,25.988,FALSE
Sr3Nb4O13,P4/mmm,0.9965,3.9767,3.9767,37.275,TRUE
SmSi2,P4/mmm,0,3.9778,3.9778,22.592,TRUE
GdGa2Co,P4/mmm,0,3.9779,3.9983,27.487,FALSE
Y2Si,P-3m1,0,3.9787,3.9787,22.466,TRUE
CeBrO,P-3m1,0,3.9789,3.9789,26.91,TRUE
OsSe,P4/nmm,0,3.979,3.979,20.327,TRUE
Sr2FeSO3,P4/nmm,0,3.9798,3.9798,31.365,TRUE
BiCl5,Pmma,0.2891,3.9802,14.657,23.858,FALSE
Sc2I5,P2_1/m,0.1292,3.9807,16.341,26.5,FALSE
P2O3,P1,1.4503,3.9807,3.7278,38.379,FALSE
TeAu,P2/m,0.9263,3.9811,6.2491,22.548,FALSE
Sr3Fe2Br2O5,P4/mmm,0.9119,3.9814,3.9814,30.382,TRUE
Te2Au,P-3m1,0,3.982,3.9976,23.009,FALSE
CaTi2O5,Pmmn,2.9043,3.982,10.102,21.084,FALSE
U2Se5,P2/m,0,3.9822,5.6694,33.934,FALSE
USe5,P2_1,0.0011,3.9824,9.3251,29.452,FALSE
TcI2,P-3m1,0,3.9829,3.9829,23.003,TRUE
PdSeO3,P2_1/m,1.1385,3.9831,6.5254,24.011,FALSE
SmSe3,P4/nmm,0,3.9833,3.9833,29.325,TRUE
SmGe2,P4/mmm,0,3.9834,3.9834,22.591,TRUE
LuTe3,Pmma,0,3.9834,4.5866,30.305,FALSE
RuSe,P4/nmm,0,3.984,3.984,22.422,TRUE
In2Se5,C2/m,1.3243,3.9841,8.1957,24.129,FALSE
HfTe2,P-3m1,0,3.9848,3.9848,23.555,TRUE
SrBe,P-3m1,0,3.9852,3.9852,28.784,TRUE
IrI2,P-3m1,0,3.9853,3.9853,22.858,TRUE
Li2I,P-3m1,0,3.9862,3.9862,23.407,TRUE
MoI2,R-3m,0,3.9863,6.9208,21.531,FALSE
Ca3Zn,Pmmn,0,3.9881,9.9477,24.803,FALSE
NdZnPO,P-3m1,1.7292,3.9884,3.9884,28.568,TRUE
MoI2,P-3m1,0,3.9901,3.995,23.152,FALSE
CaV2O5,Pmmn,2.1352,3.9903,9.8921,24.392,FALSE
MnBiSe2I,P2/m,0.0017,3.9904,10.6,24.464,FALSE
NpIO,P4/nmm,0,3.991,3.991,26.08,TRUE
RhI2,P-3m1,0,3.9911,3.9911,22.858,TRUE
NdBrO,P4/nmm,4.7336,3.9911,3.9911,25.694,TRUE
DyCoSi2,P4/nmm,0,3.9918,3.9912,26.726,TRUE
NaHgCl3,P2_1/m,2.8327,3.9921,7.3517,27.27,FALSE
ZrTe3,Pmmn,0,3.9923,5.9441,26.824,FALSE
PbSe2,P-3m1,0.0963,3.9925,3.9925,24.665,TRUE
ZnP,P-6m2,0,3.9928,3.9928,20.274,TRUE
UTeP,P4/mmm,0,3.993,3.9933,27.034,TRUE
ZnS,P4/nmm,2.755,3.9934,3.9934,22.99,TRUE
PuBr3,Pmmn,0,3.9937,9.0519,24.421,FALSE
GeBi2O5,Pmc2_1,2.1268,3.9937,10.728,26.693,FALSE
InS,P3m1,0.1569,3.9942,3.9942,21.25,TRUE
CeBiS2O,P4/nmm,0,3.9945,3.9945,30.142,TRUE
CaHI,P4/nmm,3.8095,3.9948,3.9948,25.667,TRUE
Te4Ru3,P-3m1,0,3.9956,3.9946,27.542,FALSE
BeI2,Pmma,2.057,3.9957,6.4926,23.548,FALSE
RuI2,P-3m1,1.1619,3.996,3.996,22.81,TRUE
Te2Pt,P-3m1,0.6532,3.9973,3.9973,22.725,TRUE
UBrO2,Pmma,0.1101,3.9974,4.1508,27.532,FALSE
CuSbSe2,Pmc2_1,0.1523,3.9975,6.4476,25.213,FALSE
In2S3,P1,0.19,3.9977,6.9394,29.444,FALSE
ZrTe2,R-3m,0,3.9978,3.9964,22.866,FALSE
ThGe2,P4/mmm,0,3.9981,3.9981,22.685,TRUE
ThSi2,P4/mmm,0,3.9984,3.9984,22.685,TRUE
CaBr2,C2,3.6103,3.9989,7.5961,24.439,FALSE
In2Se3,P-3m1,0.4926,3.9992,3.9992,26.456,TRUE
SiSe,Pmna,0.3771,3.9994,7.0476,24.071,FALSE
HgC2(SN)2,C2/m,2.5044,4.0001,5.8244,24.223,FALSE
SrMg,P3m1,0,4.0012,4.0012,34.509,TRUE
LuCoGe2,P4/nmm,0,4.0013,4.0065,26.878,FALSE
FeI2,P-3m1,0,4.0018,4.0018,23.24,TRUE
Sr3Fe2S2O5,P4/mmm,0,4.0021,4.0021,28.896,TRUE
SrMg,P-3m1,0.0691,4.0024,4.0024,28.784,TRUE
Sr2CoSO3,P4/nmm,0,4.0026,4.0019,30.926,FALSE
PbO,P4/nmm,2.6194,4.0034,4.0034,22.379,TRUE
TiBi2O5,Pmmn,1.9854,4.0035,10.263,24.618,FALSE
ThI2,P-6m2,0.0311,4.0039,4.0039,24.529,TRUE
In2S5,P1,1.6392,4.004,7.6871,24.086,FALSE
SrMnGe,P4/nmm,0,4.0044,4.0044,28.036,TRUE
TmTe3,Pmma,0,4.0045,4.5958,30.381,FALSE
HfGeTe4,Pmn2_1,0.724,4.0051,11.058,27.55,FALSE
BiS,C2/m,0,4.0053,4.0053,23.436,TRUE
Sr2N,P-4m2,0,4.0057,4.0193,22.957,FALSE
ZnBi2O5,Pmma,0,4.0062,12.13,25.3,FALSE
SbBr5,Pmma,0.1574,4.0067,13.735,23.858,FALSE
Te2Pd,P-3m1,0.1808,4.0076,4.0076,22.719,TRUE
TiSn2,P4/nmm,0,4.0081,4.0266,25.781,FALSE
TlS,P-1,0.9814,4.0086,12.402,25.602,FALSE
YbCl2,P-3m1,6.1298,4.0092,4.0092,23.554,TRUE
NbTlBr4O,Pmm2,1.2074,4.0099,7.6987,23.69,FALSE
EuIO,P4/nmm,0,4.01,4.01,26.571,TRUE
Pr2Cl5,P2_1/m,0.4793,4.0104,14.917,26.426,FALSE
ErTe3,Pmma,0,4.0115,4.6002,30.429,FALSE
NdSe3,P4/nmm,0,4.0123,4.0117,29.438,FALSE
SmIO,P-3m1,2.7143,4.0126,4.0126,27.325,TRUE
Tl2Se5,C2/m,0.8677,4.0132,8.1914,24.059,FALSE
La(BiO2)2,P-3m1,0,4.0133,4.0133,26.088,TRUE
CdBr2,P-3m1,3.286,4.0136,4.0136,23.241,TRUE
CdInGaS4,P3m1,0,4.0137,4.0137,30.159,TRUE
Y2Ge,P-3m1,0,4.0141,4.0141,22.466,TRUE
ZnSe,P3m1,0,4.0143,4.0143,56.585,TRUE
Cu(IO3)2,P2_1,0.506,4.0143,10.181,26.372,FALSE
CrC3,P-6m2,0,4.0148,4.0109,20,FALSE
Ge3Rh,P-6m2,0,4.0151,4.0151,24.981,TRUE
GeBr2,P-3m1,2.3501,4.0155,4.0155,23.732,TRUE
CuI2,C2/m,0,4.0166,6.5608,21.521,FALSE
ZnSe,P3m1,0,4.0167,4.0167,56.55,TRUE
HgBrN,Pmm2,0,4.0167,4.4605,21.278,FALSE
SnSe,Pbcm,0.5535,4.0167,11.97,22.971,FALSE
SiSe,Aem2,1.0097,4.0169,4.0169,22.84,TRUE
SnBrF,P4/nmm,2.3062,4.0171,4.0171,25.944,TRUE
Te2Pb,P-3m1,0,4.0178,4.0178,26.152,TRUE
AuCl2,P2_1/c,0,4.0178,6.7024,21.68,FALSE
TlS,P-3m1,0.7834,4.0182,4.0182,24.623,TRUE
SrBe,P3m1,0,4.0186,4.0186,34.509,TRUE
SCl,P-1,2.2358,4.0191,8.9176,25.833,FALSE
BiIO,P4/nmm,1.5306,4.0193,4.0193,26.221,TRUE
BI,P4/nmm,0.4077,4.0195,4.0195,21.029,TRUE
Cr3Te4,P-3m1,0,4.0198,4.0198,29.269,TRUE
Mg2Ag2O5,Pmm2,0,4.0203,4.2401,23.309,FALSE
SiSb,C2/m,1.4905,4.0212,11.637,24.727,FALSE
SmIO,P4/nmm,3.7246,4.0214,4.0214,26.15,TRUE
CuHgSBr,Pmc2_1,0.5498,4.0217,10.019,28.95,FALSE
PtCl2,Pmna,1.1724,4.0219,6.4524,22.605,FALSE
Tl4S3,Pmn2_1,0.6087,4.022,12.381,30.194,FALSE
ZrGeTe4,Pmn2_1,0.6493,4.0227,11.136,27.551,FALSE
WI2,P-3m1,0,4.023,4.0258,23.155,FALSE
Mg6BC,Pmm2,0,4.0233,8.2711,22.444,FALSE
HoTe3,Pmma,0,4.0236,4.6005,30.431,FALSE
AgTe,P2/m,0.1035,4.024,4.9315,22.704,FALSE
Si3As4,C2,0,4.0242,4.0242,27.845,TRUE
USe3,Pmmn,0,4.0244,5.7144,26.301,FALSE
AgO2F,P222_1,1.0928,4.0246,7.0857,21.962,FALSE
PrBrO,P4/nmm,4.6653,4.0246,4.0246,25.514,TRUE
Te4Mo3,P-3m1,0,4.0249,4.0272,29.269,FALSE
MgBr2,P-4m2,4.3051,4.025,4.025,22.656,TRUE
SnCl2,P-6m2,2.7295,4.0254,4.0254,23.838,TRUE
ErNiGe2,P4/nmm,0,4.0258,4.023,26.983,FALSE
AgTe,P4/nmm,0,4.0262,4.0262,23.081,TRUE
SmBr3,Pmmn,2.9908,4.0262,9.1528,24.384,FALSE
Al2Te3,P-3m1,0,4.0265,4.0265,26.98,TRUE
TlS,P-6m2,0.7934,4.0276,4.0276,25.019,TRUE
GeTe,Pbcm,0,4.0277,11.169,23.449,FALSE
MgBr2,C2,3.7567,4.0279,6.6861,24.463,FALSE
HfTe5,Pmmn,0,4.0282,13.86,25.297,FALSE
As2Pb,Pmc2_1,0.3869,4.0287,11.072,25.607,FALSE
RbCa,P2_1/m,0,4.0288,3.8573,26.036,FALSE
SrLi,P2_1/m,0,4.0289,4.0312,26.066,FALSE
LiI,P4/mmm,4.0778,4.0291,4.0291,"20.0,""",TRUE
Bi2S3,P2_1/m,1.3903,4.0292,9.8929,26.243,FALSE
NiBi2,P2_1/m,0,4.0293,5.4713,24.517,FALSE
SiSb,P-1,1.3148,4.0296,11.631,25.224,FALSE
SrF2,C2/m,6.6054,4.0301,4.0296,24.616,FALSE
AuClO2,P222_1,1.1328,4.0305,7.2978,22.803,FALSE
PrSe3,P4/nmm,0,4.0307,4.0333,29.512,FALSE
MoCl5,Pmmm,0,4.0307,7.016,23.822,FALSE
Bi2S3,P2_1/m,1.4831,4.0314,9.4764,24.948,FALSE
AgBiO2,P2/m,0.0395,4.0323,4.0305,26.421,FALSE
PbS,Pbcm,1.361,4.0331,12.319,22.971,FALSE
RbMg6BO7,P4mm,0,4.0332,4.0332,29.093,TRUE
Sb2Se3,P2_1/m,0.7285,4.0332,10.132,26.231,FALSE
C2O5,Pnc2,0,4.0333,4.9257,24.876,FALSE
OsI2,P-3m1,1.2658,4.0334,4.0334,22.81,TRUE
SrBiS2F,P4/nmm,0.8793,4.0335,4.0335,31.089,TRUE
LaCl,P-3m1,0,4.0345,4.0345,26.453,TRUE
La4C2Br5,Pmmm,0,4.0347,8.3018,26.123,FALSE
TeRh,P4/nmm,0,4.035,4.035,22.797,TRUE
Sb2Se3,P2_1/m,0.8755,4.0354,11.084,25.244,FALSE
CuI,P4/nmm,2.0728,4.0356,4.0356,23.396,TRUE
TeCl,C2/m,1.3549,4.036,8.7728,25.888,FALSE
Sr2Co(ClO)2,P4/mmm,0.2258,4.0361,4.0342,25.439,FALSE
MgCu,P6/mmm,0,4.0372,4.0356,24.159,FALSE
AlAs,P4/nmm,0.7511,4.0378,4.0378,23.942,TRUE
Bi2S3,P-3m1,1.1043,4.0386,4.0386,25.294,TRUE
Ge,P-3m1,0.0862,4.0387,4.0395,20.688,FALSE
LaBiS2O,P4/nmm,0.9125,4.0397,4.0397,31.055,TRUE
ThTeO,P4/nmm,0.8963,4.0404,4.0404,25.61,TRUE
CuO2F,Pmn2_1,0,4.0405,3.1631,26.097,FALSE
CO2,C2,5.5163,4.0406,4.0406,24.563,TRUE
CdCu2O3,Pmmn,0,4.0431,9.5039,25.125,FALSE
CdSb2Se3Br2,P2_1/m,1.1887,4.0431,18.636,24.717,FALSE
S3N2,Pmn2_1,2.2383,4.0431,8.9288,23.079,FALSE
Sr2Cu(IO)2,P4/mmm,0,4.0433,4.0433,26.889,TRUE
U(SbO3)2,C2/m,2.0818,4.0433,6.8887,23.249,FALSE
GaAs,P4/nmm,0,4.0437,4.0437,23.942,TRUE
In4Se3,Pmn2_1,1.123,4.0443,12.174,30.194,FALSE
Fe3GeTe2,P-6m2,0,4.0453,4.0453,25.219,TRUE
SrBi5O9,Pm,0,4.0455,6.8821,26.886,FALSE
CeSe3,P4/nmm,0,4.0457,4.0442,29.125,FALSE
InSb2Se4Br,P2_1/m,1.1779,4.0464,18.037,24.813,FALSE
InSe,P-1,1.4968,4.0465,12.38,25.597,FALSE
PbSe,Pmmn,1.8485,4.0471,6.2531,22.225,FALSE
SmSe,P4/nmm,0,4.0472,4.0472,23.293,TRUE
USe3,P4/nmm,0,4.0483,4.0437,28.821,FALSE
CaTlCl3,Pmma,3.5637,4.0483,10.693,24.312,FALSE
PbSe,P3m1,1.9635,4.0486,4.0486,21.478,TRUE
DySBr,Pmmn,2.8858,4.0486,5.3322,26.256,FALSE
AuI2,P-4m2,0,4.049,4.049,23.53,TRUE
NdSi2,P4/mmm,0,4.0499,4.0499,22.598,TRUE
PrBrO,P-3m1,4.1672,4.0499,4.0499,26.964,TRUE
LuFeGe2,P4/nmm,0,4.0502,4.0461,26.923,FALSE
TlS,P-1,1.1428,4.0502,6.0634,23.407,FALSE
Y2I3,C2/m,0.5098,4.0503,10.558,25.496,FALSE
SF,P-1,3.3777,4.0514,8.0552,25.851,FALSE
NpSe3,P2_1/m,0,4.0515,5.6944,26.309,FALSE
SnS,Pmn2_1,1.5596,4.0517,4.29,22.944,FALSE
CaNiGe,P4/nmm,0,4.0527,4.0527,24.276,TRUE
Te3As2,P2_1/m,0.5707,4.0527,10.138,26.2,FALSE
Sr5Y,P1,0,4.0529,7.8527,25.337,FALSE
KBe,P2_1/m,0,4.0529,2.6859,26.08,FALSE
ZrTe5,Pmmn,0.0226,4.053,13.869,25.422,FALSE
ThBrN,P4/nmm,2.5888,4.053,4.053,25.804,TRUE
ReI2,P-3m1,0,4.0536,4.0536,23.003,TRUE
Br3N,Pmn2_1,1.3256,4.0543,11.083,23.123,FALSE
DyTe3,Pmma,0,4.0544,4.5801,30.585,FALSE
InSe,P-6m2,1.538,4.0549,4.0549,25.367,TRUE
AgI,Pmma,0.8623,4.0551,4.1378,23.042,FALSE
Rb2F,Pmma,0,4.0559,7.9673,23.993,FALSE
Cl2,Pbam,2.3431,4.0559,8.099,19.861,FALSE
Ge3H,P-3m1,0.0981,4.0561,4.0561,30.11,TRUE
Bi2S3,Pmn2_1,1.3075,4.0565,12.955,23.079,FALSE
Sr5La,P1,0,4.0572,7.8826,25.327,FALSE
LiBiB2O5,P2_1,2.9603,4.0577,5.2784,27.462,FALSE
Na2Br,P-3m1,0,4.0583,4.0583,23.407,TRUE
NdGe2,P4/mmm,0,4.0585,4.0585,22.598,TRUE
GeH,P-3m1,1.0684,4.0595,4.0595,23.722,TRUE
I5N,Pmma,0,4.0597,12.907,23.858,FALSE
NaBr,P4/mmm,4.3939,4.0604,4.0604,"20.0,""",TRUE
CeSn2,P4/mmm,0,4.0607,4.0607,22.585,TRUE
HAuO2,P-1,0.5255,4.0612,5.4141,23.357,FALSE
Sb2Se3,P-3m1,0.4984,4.0621,4.0621,26.918,TRUE
Sr5Ce,Cm,0,4.0627,7.9166,25.533,FALSE
Sn3P4,C2,0.2819,4.063,4.063,27.827,TRUE
TmI2,P-3m1,0,4.0633,4.0633,23.842,TRUE
SnAs,P-1,1.109,4.0634,12.187,24.951,FALSE
LaBrO,P4/nmm,3.9982,4.064,4.064,25.515,TRUE
BaLi,P4/nmm,0,4.0645,4.0193,26.54,FALSE
Te4Os3,C2/m,0,4.0647,7.0442,28.108,FALSE
TeIr,P4/nmm,0,4.0649,4.0649,22.797,TRUE
PSe,C2/m,0,4.065,4.065,23.278,TRUE
Mg2P,Pmmn,0,4.065,4.5566,25.587,FALSE
PbSe2,P-4m2,0.2821,4.0655,4.0655,22.855,TRUE
SbAs,P1,0.2475,4.0658,4.5218,22.477,FALSE
Ba2Zn,P4/mmm,0,4.0659,4.0659,23.983,TRUE
Te4Os3,P-3m1,0,4.0659,4.0659,27.542,TRUE
BaNiF4,Pmn2_1,4.2697,4.0662,5.9374,26.557,FALSE
Sr5Tm,P1,0,4.0675,7.8052,25.464,FALSE
PdI2,P-3m1,0,4.0676,4.0676,22.803,TRUE
Sr2CrSO3,Pmmn,0,4.0676,3.873,31.179,FALSE
NpBr3,Pmmn,0,4.0679,9.1511,24.552,FALSE
ErCoGe2,P4/nmm,0,4.0684,4.0665,26.764,FALSE
SiI2,P-6m2,1.5122,4.0687,4.0687,23.838,TRUE
InSe,P-3m1,1.4115,4.0695,4.0695,24.623,TRUE
SiNiSb,P4/nmm,0,4.0698,4.0698,23.746,TRUE
Li2VO2F,Pmma,0.6012,4.0703,3.9932,26.55,FALSE
SnAs,C2/m,1.3468,4.0709,12.2,24.752,FALSE
LiVF4,P-1,2.3884,4.071,7.4398,19.359,FALSE
Ge3Ir,P-6m2,0,4.0711,4.0711,24.981,TRUE
PbBrF,P4/nmm,3.0495,4.0712,4.0712,25.47,TRUE
CaCl2,P-3m1,5.73,4.0714,4.0714,23.016,TRUE
SmGa2Co,P4/mmm,0,4.0716,4.0857,27.072,FALSE
AgN,P4/nmm,0,4.072,4.072,21.293,TRUE
Sr2Co(BrO)2,P4/mmm,0,4.0733,4.0733,25.977,TRUE
CI3,P1,0.1616,4.0735,10.056,23.969,FALSE
ZnI2,P-3m1,2.0149,4.0736,4.0736,23.259,TRUE
Te3As2,P-3m1,0.7317,4.0737,4.0737,27.303,TRUE
NdIO,P4/nmm,3.7655,4.0744,4.0744,26.217,TRUE
TiSb2,P-3m1,0,4.0749,4.0749,21.95,TRUE
Y7I10,P-1,0,4.0756,18.257,26.845,FALSE
SrBrF,P4/nmm,5.4039,4.0763,4.0763,25.298,TRUE
PPb,C2/m,0.8801,4.0776,12.391,24.724,FALSE
SiTe,Pmna,0.0949,4.078,7.6272,24.071,FALSE
SrCa,P3m1,0.029,4.0788,4.0788,34.509,TRUE
Cu2S,P6/mmm,0,4.0789,4.0789,24.537,TRUE
HfO2,P2_1/m,0.3646,4.0793,6.7227,28.953,FALSE
AsSe,P-1,0,4.0794,4.4628,22.849,FALSE
AsPt,P-6m2,0,4.08,4.0822,"20.0,""",FALSE
P2O3,P1,2.083,4.0803,4.4925,25.194,FALSE
TmFeGe2,P4/nmm,0,4.0804,4.0812,26.885,FALSE
LaBr,P-3m1,0,4.0808,4.0808,26.854,TRUE
CeSe,P4/nmm,0,4.0813,4.0813,23.21,TRUE
Sc2Pb,P-3m1,0,4.0814,4.0814,22.695,TRUE
Nd2Se5,P4/nmm,0,4.0816,4.0816,38.68,TRUE
Ge3P4,C2,0,4.0823,4.0823,27.846,TRUE
PtBr2,Pmna,0.9191,4.0824,6.8449,22.605,FALSE
TiS,P4/nmm,0,4.0825,4.0825,22.865,TRUE
Tl2S3,P1,0.172,4.0825,6.768,29.564,FALSE
YI2,P-6m2,0.1714,4.0833,4.0833,23.825,TRUE
KSr,P2_1/m,0,4.0841,3.9756,26.088,FALSE
Y5I8,P2/m,0,4.0843,15.476,25.19,FALSE
HoCoGe2,P4/nmm,0,4.085,4.0848,26.779,FALSE
PPb,P-1,0.5924,4.086,12.364,25.218,FALSE
CeSe2,Pmmm,0.7371,4.0865,5.5703,23.677,FALSE
SrCa,P-3m1,0.0675,4.0873,4.0873,28.784,TRUE
P2C,P-42_1m,1.8462,4.0873,4.0873,21.526,TRUE
PrSn5,Pmmm,0,4.0874,7.0004,23.394,FALSE
HgBr2,C2,2.0861,4.0874,4.0841,22.747,FALSE
AsPd,P-6m2,0,4.0877,4.0905,"20.0,""",FALSE
CaCl2,C2/m,5.4021,4.0877,8.5656,24.656,FALSE
CdBr2,P-4m2,3.0243,4.0878,4.0878,22.741,TRUE
NdAl3Cu,P4mm,0,4.088,4.088,23.64,TRUE
SiSb2,Pmc2_1,0.9657,4.0883,11.228,26.149,FALSE
KUClO3,P2_1/m,1.8821,4.0889,6.9423,27.106,FALSE
TePdI2,P-1,0.5474,4.0894,7.0291,27.646,FALSE
TeP,P4/nmm,0,4.0899,4.0899,23.274,TRUE
EuS,P4/mmm,0,4.0899,4.0899,25.905,TRUE
Mg3Ge,P4mm,0,4.0899,4.0884,22.353,FALSE
RbHfMg6O7,P4mm,0,4.0902,4.0902,29.567,TRUE
Tl2S5,P1,0.78,4.0902,7.7516,24.073,FALSE
CdBiSe2I,P2/m,0.6363,4.0904,11.011,25.971,FALSE
CuHgSeCl,Pmc2_1,0.8203,4.0906,6.9585,29.666,FALSE
AlAs,P-6m2,1.2399,4.0907,4.0907,"20.0,""",TRUE
TeOs,P4/nmm,0,4.0911,4.0911,22.779,TRUE
Tl2CuF4,P4/mmm,0,4.0919,4.0919,24,TRUE
AlPd5I2,P4/mmm,0,4.092,4.092,27.268,TRUE
ZnSe,P3m1,1.8295,4.0921,4.0921,20.166,TRUE
CeSe2,P4/nmm,0,4.0924,4.1026,25.721,FALSE
Sb2S2O,P2_1/m,1.8263,4.0925,10.138,23.478,FALSE
CaBr2,Pmma,2.7998,4.0925,7.3448,23.548,FALSE
Mg3Si,P4mm,0,4.0928,4.0957,22.353,FALSE
ZnSe,P4/nmm,2.1824,4.093,4.093,23.024,TRUE
TeBr,C2/m,1.128,4.0943,9.1115,25.893,FALSE
In2Se5,P1,1.4284,4.0947,8.004,24.101,FALSE
Al3Rh,P-6m2,0,4.0954,4.0954,25.13,TRUE
Li2CeP2,P-3m1,0.9072,4.0957,4.0957,24.933,TRUE
VI2,P-3m1,1.1625,4.0958,4.0957,23.144,TRUE
AlTe,C2/m,1.4948,4.0962,5.5256,23.427,FALSE
Al4Te3,Pmn2_1,0.8599,4.0966,11.8,30.194,FALSE
NdBr3,Pmmn,2.9851,4.0975,9.1967,24.388,FALSE
PtI2,P-3m1,0,4.0976,4.0976,22.803,TRUE
TeAu,P-1,0,4.0977,6.7701,25.301,FALSE
MoF2,P2_1/c,2.7084,4.0979,6.1259,21.596,FALSE
Sr2GdS3,P4/mmm,0,4.0982,4.0982,25.839,TRUE
SrSbSe2F,P4/nmm,0.0582,4.0993,4.0993,31.433,TRUE
CrAs2,P-1,0,4.0994,5.6702,22.622,FALSE
InSe,C2/m,2.1011,4.1,6.0073,23.241,FALSE
Sb2O3,P2_1,3.0832,4.1005,8.8891,22.244,FALSE
LiBH4,P3m1,6.3578,4.1009,4.1009,21.623,TRUE
LaBr2,P-6m2,0.6842,4.1019,4.1019,23.835,TRUE
BiP,P1,0.5717,4.1027,4.3828,22.478,FALSE