Formula,No. of Elements,Discovery Process,Space Group,Point Group,Crystal System,Band Gap,Is Gap Direct?,a,b,c
LaClO2,3,top-down,P2/m,2/m,monoclinic,3.1343000000000005,False,3.56686295,6.76971937,25.93473
Ge,1,top-down,P-3m1,-3m,trigonal,0.08620000000000028,False,4.03875047,4.039502247142985,20.688228
HgNCl,3,top-down,Pmma,mmm,orthorhombic,0.1706000000000003,True,3.94553671,7.40374972,22.802171
YZnPO,4,top-down,P-3m1,-3m,trigonal,1.5894,True,3.89822173,3.8982217863975044,28.361341
LiBe,2,top-down,P2_1/m,2/m,monoclinic,0.0,False,2.36294075,2.15823736,26.090365
GaTe,2,top-down,P-6m2,-6m2,hexagonal,1.4594999999999998,False,4.12025067,4.12025012674825,25.019273
Mn(InSe2)2,3,top-down,P3m1,3m,trigonal,0.0,False,4.15135457,4.15135515835743,29.80906
BPt2,2,top-down,P-6m2,-6m2,hexagonal,0.0,False,2.8254095407903717,2.8254101345053617,22.780419
Pt(NO3)2,3,top-down,P-3,-3,trigonal,0.0,False,4.6912568700000055,4.691257673059002,22.565685
B,1,top-down,P6/mmm,6/mmm,hexagonal,0.0,False,1.70698769,1.7069868072813519,20.0
Ni(ClO3)2,3,top-down,C2/m,2/m,monoclinic,0.0,False,4.97785571,5.970825247006594,23.098413
MgSb2,2,top-down,P2/m,2/m,monoclinic,0.0,False,3.17756727,8.02593018,24.119601
VTe2,2,top-down,C2/m,2/m,monoclinic,0.0,False,3.62934684,9.753702628940127,23.819785
Cu2WSe4,3,top-down,P-42m,-42m,tetragonal,1.2721,False,5.57153664,5.57153664,22.837891
ReN2,2,top-down,P-6m2,-6m2,hexagonal,0.09430000000000005,False,2.871344871761797,2.8713449655411147,26.361247
LaBiSe2O,4,top-down,P4/nmm,4/mmm,tetragonal,0.8392,True,4.13420835,4.13420835,31.676534
TaAlO4,3,top-down,P2/m,2/m,monoclinic,3.1350000000000002,False,3.90319011,6.22083364,26.123758
SnPS3,3,top-down,P-3,-3,trigonal,1.347,True,6.71105589,6.711055619154406,23.466013
Na2Cl,2,top-down,Pmma,mmm,orthorhombic,0.0,False,3.90517452,7.13573512,23.993148
SrMg2,2,top-down,P-6m2,-6m2,hexagonal,0.0,False,3.80762234,3.807622232216948,25.948554
Co(SiSe2)2,3,top-down,C2/m,2/m,monoclinic,0.0,False,3.55498309,6.886481870981657,22.89603
Mg3C,2,top-down,P4mm,4mm,tetragonal,0.18989999999999996,False,3.74411211,3.74615285,22.353476
ThSe3,2,top-down,P2_1/m,2/m,monoclinic,1.2909999999999997,False,4.23982496,5.79637173,26.581833
LiTl,2,top-down,P-6m2,-6m2,hexagonal,0.06010000000000004,False,5.09756312,5.096999175250335,25.767308
Tl2CuF4,3,top-down,P4/mmm,4/mmm,tetragonal,0.0,False,4.0919535,4.0919535,24.00057
MgCuO2,3,top-down,P-4m2,-42m,tetragonal,0.0,False,3.91374641,3.91374641,20.350559
Se,1,top-down,Pmma,mmm,orthorhombic,0.0,False,2.8342792190668504,4.645104630194481,21.025149
MgSb2,2,top-down,C2/m,2/m,monoclinic,0.0,False,3.28468022,6.4667860706467915,24.723462
ZnGeN2,3,top-down,P2_1/c,2/m,monoclinic,2.0538,False,5.5359888,6.46800354,23.596304
Mg5Ti,2,top-down,Cm,m,monoclinic,0.0,False,3.06206822,5.939565116268017,25.12005
V2CoO6,3,top-down,C2/m,2/m,monoclinic,1.5327000000000002,False,3.66395691,7.6456979473406514,24.947419
Mg2Ti,2,top-down,P-6m2,-6m2,hexagonal,0.0,False,3.02361717,3.023616592943731,25.028891
DyTe3,2,top-down,P4/nmm,4/mmm,tetragonal,0.0,False,4.34756442,4.34764386,29.107358
SbS,2,top-down,P-1,-1,triclinic,0.0,False,3.931361933879901,4.894793569812514,22.849215
MgTi2,2,top-down,Pmma,mmm,orthorhombic,0.0,False,2.90717882,4.6390886,26.931117
BaFeS,3,top-down,P4/nmm,4/mmm,tetragonal,0.0,False,3.80191573,3.80191573,25.649401
B2S2O9,3,top-down,C2,2,monoclinic,7.0669,False,4.20475799,4.426089251254363,27.246086
ZrCd,2,top-down,P4/nmm,4/mmm,tetragonal,0.0,False,3.08273752,3.08273752,27.017986
TmTe3,2,top-down,Pmma,mmm,orthorhombic,0.0,False,4.00456131,4.59581706,30.381957
Pd(NCl)2,3,top-down,P1,1,triclinic,0.4788999999999999,False,3.4127851267923552,4.400106534070322,24.441529
CeMg2,2,top-down,Pmma,mmm,orthorhombic,0.0,False,3.07336875,5.34415453,27.931777
LiH2N,3,top-down,Pc,m,monoclinic,2.9612,True,3.203795204665929,5.3543070609569225,23.352102
LaAl3Cu,3,top-down,P4mm,4mm,tetragonal,0.0,False,4.16571346,4.16571346,23.683203
In2Te3,2,top-down,P-3m1,-3m,trigonal,0.0,False,4.27323898,4.273239165334853,26.980377
MgO2,2,top-down,C2/m,2/m,monoclinic,1.0607999999999995,False,3.05106481,3.421752573897463,21.607113
CrSe2,2,top-down,P-3m1,-3m,trigonal,0.0,False,3.457284,3.4567889094978006,22.911522
ThGe2,2,top-down,P4/mmm,4/mmm,tetragonal,0.0,False,3.99815487,3.99815487,22.685899
MgSn,2,top-down,P3m1,3m,trigonal,0.0,False,3.36278545,3.3627848362144004,32.572719
ScF3,2,top-down,Pmc2_1,mm2,orthorhombic,6.0864,False,4.73899545,5.34426348,22.434124
FeSe,2,top-down,Cmme,mmm,orthorhombic,0.0,False,3.5628007560914154,3.562800970907633,23.66238
Pb,1,top-down,P-3m1,-3m,trigonal,0.0,False,3.52672544,3.526726148531563,22.485215
MgTi,2,top-down,Pmmn,mmm,orthorhombic,0.0,False,2.91522722,4.88047707,29.588443
YMg2,2,top-down,Pmma,mmm,orthorhombic,0.0,False,3.33184708,6.79804061,24.880096
ZrCl3,2,top-down,C2/m,2/m,monoclinic,0.1730999999999998,False,6.081914367261146,6.234153896897329,23.175187
YbCoGe2,3,top-down,P4/nmm,4/mmm,tetragonal,0.0,False,4.14974503,4.15124939,26.88967
W2N3,2,top-down,P-6m2,-6m2,hexagonal,0.0,False,2.92347258,2.92347297703175,25.178968
MoS2,2,top-down,P-6m2,-6m2,hexagonal,1.6533000000000002,True,3.19622328,3.1962226680255728,23.12983
Al2FeS4,3,top-down,P3m1,3m,trigonal,0.0,False,3.57749081,3.577491435723292,29.02009
ZrSiO4,3,top-down,P2/c,2/m,monoclinic,3.9934,False,4.4662428475788305,4.874515125636427,24.370492
Te,1,top-down,Pmma,mmm,orthorhombic,0.0,False,3.1640012506531328,5.398946807906801,21.823423
Al2ZnS4,3,top-down,P3m1,3m,trigonal,0.0,False,3.69261659,3.6926161515637204,28.997147
Bi2O3,2,top-down,P3m1,3m,trigonal,2.9846,False,7.99661506,7.996615435642658,23.147136
C3N,2,top-down,Pmma,mmm,orthorhombic,0.0,False,3.35890224,6.79762601,20.014903
Na2HfN2,3,top-down,P-3m1,-3m,trigonal,0.0,False,3.31891755,3.3189175203362384,25.237329
H2C2S,3,top-down,P-3m1,-3m,trigonal,0.20409999999999995,False,2.84266351,2.8426634346923443,24.098936
CdO2,2,top-down,P-3m1,-3m,trigonal,0.04490000000000016,False,3.44036002,3.4403599979299146,22.026078
SmGe2,2,top-down,P4/mmm,4/mmm,tetragonal,0.0,False,3.98347661,3.98347661,22.591997
HfCd,2,top-down,P4/nmm,4/mmm,tetragonal,0.0,False,3.09778579,3.09778579,26.60755
Tl2GeSe3,3,top-down,P-1,-1,triclinic,1.5326000000000002,False,6.84212923316792,8.767821596016951,24.38927
YbCuPbSe3,4,top-down,Pmma,mmm,orthorhombic,0.0,False,3.83803819,10.63845898,26.728554
TeO2,2,top-down,P4/nmm,4/mmm,tetragonal,1.5653,True,3.35975325,3.36133482,24.161191
LiMnTe2,3,top-down,P3m1,3m,trigonal,0.0,False,4.49701018,4.497010035410797,25.140956
MgSb3,2,top-down,Pmm2,mm2,orthorhombic,0.0,False,3.24475342,5.87634999,24.796553
GeP,2,top-down,C2/m,2/m,monoclinic,1.7551,False,3.6564295,10.882160359527173,24.939546
TbGe2,2,top-down,P4/mmm,4/mmm,tetragonal,0.0,False,3.85589495,3.85589495,22.621078
NaLi2As,3,top-down,Pmmm,mmm,orthorhombic,0.0,False,3.3025312,4.91320181,24.871778
Mn(SbS2)2,3,top-down,C2/m,2/m,monoclinic,0.9429000000000001,False,3.81128489,6.536090936557284,24.73229
CeMg2,2,top-down,C2/m,2/m,monoclinic,0.0,False,3.14575862,5.862489139486968,26.048837
MgTi,2,top-down,Pmmn,mmm,orthorhombic,0.0,False,4.7864586,5.95849692,28.767164
CeSe2,2,top-down,Pmmm,mmm,orthorhombic,0.7370999999999999,False,4.08651135,5.57032728,23.677185
HfMg6BO7,4,top-down,P4mm,4mm,tetragonal,0.0,False,4.18312801,4.18312801,28.93035
ZrN2,2,top-down,P-3m1,-3m,trigonal,0.0,False,3.4072707389579775,3.407270809867815,21.950507
TePb,2,top-down,P4/nmm,4/mmm,tetragonal,1.2349999999999999,False,4.62345416,4.6288217,23.352528
LaBiS2O,4,top-down,P4/nmm,4/mmm,tetragonal,0.9125,True,4.03974606,4.03974606,31.055713
Zn(OF)2,3,top-down,Cmmm,mmm,orthorhombic,0.0,False,2.78875596,5.90108894429543,22.722098
Ta2PtSe7,3,top-down,P2_1/m,2/m,monoclinic,0.01440000000000019,False,3.5739194,18.93474489,26.029605
EuS,2,top-down,P4/mmm,4/mmm,tetragonal,0.0,False,4.089946525734123,4.089946621797861,25.905649
CdClO,3,top-down,P3m1,3m,trigonal,0.1528999999999998,True,3.719652158000444,3.7196522094854023,22.299815
LaMg5,2,top-down,Cm,m,monoclinic,0.0,False,3.23253418,6.604059390937587,25.516295
TiS2,2,top-down,P4/mmm,4/mmm,tetragonal,0.0,False,3.03486328,3.03486328,22.61712
MgTi,2,top-down,P4/nmm,4/mmm,tetragonal,0.0,False,4.16404031,4.10201039,24.731911
Nd2Te5,2,top-down,P4/nmm,4/mmm,tetragonal,0.0,False,4.44093782,4.4424829,38.680446
TbGaI,3,top-down,P-3m1,-3m,trigonal,0.0,False,4.18913711,4.189137629543479,28.072251
CeMg5,2,top-down,Cm,m,monoclinic,0.0,False,3.05649252,6.394496522805409,25.53339
Mo(BrO)2,3,top-down,Pmc2_1,mm2,orthorhombic,1.1624999999999996,False,3.92394759,7.73648669,24.865533
Y2C,2,top-down,P-3m1,-3m,trigonal,0.0,False,3.54336838,3.543368179041827,22.695858
CuPb2(ClO2)2,4,top-down,P4mm,4mm,tetragonal,0.0,False,5.7536863,5.7536863,25.422334
Al2Zn2S5,3,top-down,P-3m1,-3m,trigonal,1.2347000000000001,False,3.6695363,3.6695353867032154,31.894417
Sr2GdS3,3,top-down,P4/mmm,4/mmm,tetragonal,0.0,False,4.098261425165807,4.098261057928607,25.839767
RbLiMg6O7,4,top-down,P4mm,4mm,tetragonal,0.0,False,4.14450741,4.14450741,28.579455
ZrS2,2,top-down,P-3m1,-3m,trigonal,1.1262000000000003,False,3.69092,3.6909195814187012,22.914081
Mn(AlS2)2,3,top-down,P3m1,3m,trigonal,0.0,False,3.65159628,3.651596453254368,29.143014
YbCl3,2,top-down,Pmmn,mmm,orthorhombic,0.0,False,3.84969191,7.96197533,23.788895
HfSiSe,3,top-down,P4/nmm,4/mmm,tetragonal,0.0,False,3.53743776,3.53743776,26.394765
YI,2,top-down,P-3m1,-3m,trigonal,0.0,False,3.93495687,3.934957020318036,27.090311
Mn(BiTe2)2,3,top-down,P-3m1,-3m,trigonal,0.8198,False,4.33807812,4.33807874992973,30.88171
Cd3As2,2,top-down,P-4m2,-42m,tetragonal,0.31110000000000015,True,9.29427077,9.29427077,29.118352
Si(CO)2,3,top-down,Pmmm,mmm,orthorhombic,0.0,False,2.932128363111956,6.961175189369171,24.607794
YMg,2,top-down,P-3m1,-3m,trigonal,0.0,False,3.46867408,3.4686739841062058,28.588249
SnS2,2,top-down,P-3m1,-3m,trigonal,1.5737999999999994,False,3.6977793,3.69777954994512,22.955682
KSnN3,3,top-down,P-3,-3,trigonal,0.6514000000000002,False,6.836469827986195,6.773843791686253,25.959252
Ti3(HO2)2,3,top-down,P-3m1,-3m,trigonal,0.0,False,3.02049773,3.0242599598026647,29.320299
Bi,1,top-down,P2_1/m,2/m,monoclinic,0.08440000000000003,False,4.59837065,4.6006517,23.788442
LiMnSe2,3,top-down,P3m1,3m,trigonal,0.0,False,4.13150367,4.131503772916823,24.406371
Al2ZnS4,3,top-down,P-3m1,-3m,trigonal,1.6313,False,3.68195826,3.681958658234165,28.962192
Sb2Te3,2,top-down,P2/c,2/m,monoclinic,1.1661000000000001,False,7.528096270132804,10.570598954090842,22.151253
PbS,2,top-down,Pma2,mm2,orthorhombic,2.2504,False,6.10318907,6.89764706,23.753554
AlAgO2,3,top-down,P3m1,3m,trigonal,0.0,False,2.90317394,2.9031740667471837,24.150299
Al2ZnS4,3,top-down,P3m1,3m,trigonal,0.0,False,3.69252569,3.692525146607999,28.983768
CaMg,2,top-down,P3m1,3m,trigonal,0.0,False,3.65257533,3.652575665905644,34.509042
VS2,2,top-down,P-6m2,-6m2,hexagonal,0.027899999999999814,False,3.18451863,3.184518206064929,22.983646
NaI,2,top-down,P4/mmm,4/mmm,tetragonal,3.8631,False,4.3977225,4.3977225,20.0
HoSI,3,top-down,Pmmn,mmm,orthorhombic,2.7458,True,4.14430728,5.31079099,26.67683
AgN,2,top-down,P4/nmm,4/mmm,tetragonal,0.0,False,4.072019389862337,4.072019288315962,21.293528
MgTi,2,top-down,P3m1,3m,trigonal,0.0,False,2.97032393,2.9703240901623893,32.462928
EuGe3,2,top-down,P-6m2,-6m2,hexagonal,0.06820000000000004,False,6.37098905,6.371037312231411,20.0
CdCl4,2,top-down,Pmna,mmm,orthorhombic,0.28470000000000084,False,7.35641282,5.24754487,24.809388
As2Se3,2,top-down,P2_1/m,2/m,monoclinic,0.7142,False,3.77386415,9.61338081,25.922443
KPO4,3,top-down,P2_1/m,2/m,monoclinic,0.012199999999999989,False,5.35266597,7.08553901,25.412923
PdN,2,top-down,P-6m2,-6m2,hexagonal,0.0,False,3.37401003,3.372921082686467,20.0
NiS2,2,top-down,P4/mmm,4/mmm,tetragonal,0.0,False,3.21820647,3.21820647,22.129693
Fe(BrN)2,3,top-down,P2/m,2/m,monoclinic,0.0,False,3.53850615,4.03139253,22.676015
Tl2SiSe3,3,top-down,P-1,-1,triclinic,2.1983,False,6.839391681553584,8.7274065708372,24.355267
HoBC,3,top-down,Pmma,mmm,orthorhombic,0.0,False,3.37601072,3.50306446,23.997799
HC,2,top-down,P-3m1,-3m,trigonal,3.4891,True,2.53688891,2.5368893630606624,22.681159
NaMnTe2,3,top-down,P3m1,3m,trigonal,0.0,False,4.56411724,4.5641178326294085,25.655471
Ag2IO6,3,top-down,P-31m,-3m,trigonal,0.0,False,5.6303420200000955,5.630342053169082,22.571818
Ti2Te2P,3,top-down,P-3m1,-3m,trigonal,0.0,False,3.6533389,3.6533389467360164,26.277482
BaMgSn,3,top-down,P4/nmm,4/mmm,tetragonal,0.08550000000000013,True,6.84185579,6.84185579,30.81564
MgTi,2,top-down,P4/mmm,4/mmm,tetragonal,0.0,False,4.1840332,4.18533432,26.045966
Al(BiO2)2,3,top-down,P42_12,422,tetragonal,0.0,False,8.72606253,8.72606253,22.277193
NaTi2HO5,4,top-down,Pm,m,monoclinic,0.0,False,3.045359583032605,3.663137770681375,28.275376
ZnO2,2,top-down,P-3m1,-3m,trigonal,0.2281000000000004,False,3.10401737,3.1043771222100403,21.878644
Mn2Ga2S5,3,top-down,P-3m1,-3m,trigonal,0.0,False,3.68244123,3.682581266990398,32.086073
VPS3,3,top-down,P-31m,-3m,trigonal,0.0,False,5.92913209,5.947801259858872,23.108786
CeSe2,2,top-down,P4/nmm,4/mmm,tetragonal,0.0,False,4.09249267,4.10263291,25.721253
SiS,2,top-down,Pmna,mmm,orthorhombic,0.5016000000000003,True,3.96287863,6.66210128,24.071701
Bi2Pt,2,top-down,P31m,3m,trigonal,0.0,False,6.61299152,6.613141344313346,23.849595
CdS,2,top-down,P3m1,3m,trigonal,1.6771999999999996,True,4.24498006,4.244979808403696,20.16693
PdCl2,2,top-down,Pmna,mmm,orthorhombic,0.9213999999999998,False,3.86554301,6.49930664,22.605336
Al2Ru,2,top-down,P4/mmm,4/mmm,tetragonal,0.0,False,2.98197387,2.98197387,22.704718
ThCo5,2,top-down,P6/mmm,6/mmm,hexagonal,0.0,False,6.83496386,6.864772672851239,20.0
Na2ZrN2,3,top-down,P-3m1,-3m,trigonal,0.0,False,3.3748991,3.374899129610068,25.211677
Ca(NCl)2,3,top-down,Pma2,mm2,orthorhombic,1.4468999999999994,True,5.24864656,7.60353323,23.903731
Zn2Ga2S5,3,top-down,P-3m1,-3m,trigonal,0.9591,False,3.68795177,3.687952588425703,31.968599
HfSiTe,3,top-down,P4/nmm,4/mmm,tetragonal,0.0,False,3.67212193,3.67212193,26.98638
Bi2S2O,3,top-down,P4/nmm,4/mmm,tetragonal,0.9895999999999999,True,3.96701728,3.96701728,31.222949
VI2,2,top-down,P-3m1,-3m,trigonal,1.1625,False,4.095882823430252,4.095742798696012,23.144466
SnPO3,3,top-down,Pc,m,monoclinic,0.3769,False,4.661121670805071,5.997045801512618,24.305463
HoFeGe2,3,top-down,P4/nmm,4/mmm,tetragonal,0.0,False,4.11764129,4.12248285,26.802911
FeBiO3,3,top-down,P4mm,4mm,tetragonal,0.0,False,3.93448548,3.93448548,23.952119
Y(CuS)2,3,top-down,P-3m1,-3m,trigonal,0.0,False,3.8888190137316783,3.8888193072633097,24.38262
HfTe5,2,top-down,Pmmn,mmm,orthorhombic,0.0,False,4.02823807,13.8604544,25.297584
BaMgPb,3,top-down,P4/nmm,4/mmm,tetragonal,0.018699999999999717,True,6.85275107,6.85275107,31.07481
Ce(SbSe2)2,3,top-down,C2/m,2/m,monoclinic,0.0248999999999997,False,9.1236559,10.574561678752584,23.707319
Ni,1,top-down,P-3m1,2/m,trigonal,0.0,False,2.4091796600026005,4.174796761775887,22.024152
SrTa2O7,3,top-down,P4/mmm,4/mmm,tetragonal,0.0,False,3.95374208,3.95374208,28.042322
SrFe2Se2O,4,top-down,Pmmn,mmm,orthorhombic,1.1999,True,4.36940361,9.91192514,26.551836
MgBi2,2,top-down,C2/m,2/m,monoclinic,0.0,False,3.39186951,6.726065583812148,24.980012
In2Se3,2,top-down,P-3m1,-3m,trigonal,0.4925999999999999,False,3.99922453,3.999223836049851,26.456756
MgTi,2,top-down,Pmma,mmm,orthorhombic,0.0,False,4.24238801,4.2755356,27.55563
CaC2,2,top-down,Cmme,mmm,orthorhombic,0.0,False,4.42665739,4.523118184219892,23.148083
HoTe3,2,top-down,P4/nmm,4/mmm,tetragonal,0.0,False,4.34215924,4.34215924,29.088529
Ag2SeO4,3,top-down,C222,222,orthorhombic,1.5468000000000002,False,4.77460099,6.498341827401565,22.026553
HoTe3,2,top-down,Pmma,mmm,orthorhombic,0.0,False,4.02362693,4.60050623,30.431429
ZnSiN2,3,top-down,Pmna,mmm,orthorhombic,0.2691000000000001,True,5.59048077,5.70765675,23.988225
TmSb2,2,top-down,C222,222,orthorhombic,0.0,False,3.3254227,3.4418885790578932,24.898708
HgSBr,3,top-down,P2_1/m,2/m,monoclinic,0.0,False,4.73912982,8.02149043,22.913021
LiC12,2,top-down,P6/mmm,6/mmm,hexagonal,0.0,False,4.29691271,4.296913330816941,23.785746
Er2Mg2Ru,3,top-down,P4/mmm,4/mmm,tetragonal,0.0,False,3.33585223,3.33585223,28.360058
C,1,top-down,P4/mmm,4/mmm,tetragonal,0.0,False,1.63293774469592,1.6329375743199714,20.0
LuTe3,2,top-down,Pmma,mmm,orthorhombic,0.0,False,3.98343159,4.58666399,30.305883
HfTe3,2,top-down,Pmmn,mmm,orthorhombic,0.0,False,3.96068184,5.94023566,26.856246
ZnO,2,top-down,P-6m2,-6m2,hexagonal,1.678,True,3.28168038,3.281680184121536,20.634921
PbS,2,top-down,Pmn2_1,mm2,orthorhombic,2.0793,False,3.92226068,5.95462898,22.166363
Sr2N,2,top-down,P-3m1,-3m,trigonal,0.0,False,3.83690457,3.8369043390917734,22.747798
CaNiGe,3,top-down,P4/nmm,4/mmm,tetragonal,0.0,False,4.05273375,4.05273375,24.276417
ZnBi,2,top-down,P3m1,3m,trigonal,0.0,False,4.630187792167901,4.630187907869027,20.274504
MgSn,2,top-down,P-3m1,-3m,trigonal,0.0,False,3.2946667,3.294667214158417,27.549778
MgSb,2,top-down,Pmm2,mm2,orthorhombic,0.0,False,3.71103997,5.13013901,26.78099
Pb3N2,2,top-down,Pmmn,mmm,orthorhombic,0.03100000000000014,False,3.59342943,11.4947233,23.067883
Ca(BH)2,3,top-down,P-3m1,-3m,trigonal,0.0,False,3.51058536,3.510585637591391,23.683521
Zn(GaS2)2,3,top-down,P3m1,3m,trigonal,0.0,False,3.72338026,3.723380145871187,29.128366
PtSe2,2,top-down,P-3m1,-3m,trigonal,1.3516,False,3.73579098,3.7357905774624043,22.613389
Al2Zn2S5,3,top-down,P-6m2,-6m2,hexagonal,1.5795,False,3.67430822,3.674308929119923,31.887533
Mg(InSe2)2,3,top-down,P-1,-1,triclinic,1.2458,False,7.117041640899883,8.210472923650903,30.275164
NbF4,2,top-down,P4/mmm,4/mmm,tetragonal,0.0,False,4.15895556,4.15895556,23.812503
CeMg,2,top-down,Pmmn,mmm,orthorhombic,0.0,False,3.04382308,5.07947257,25.269087
LuTe3,2,top-down,P4/nmm,4/mmm,tetragonal,0.0,False,4.32468109,4.32367575,28.948329
LaIO3,3,top-down,P2_1/m,2/m,monoclinic,0.7019,True,4.15338965,4.31589062,26.999725
Nb2PdS6,3,top-down,C2/m,2/m,monoclinic,0.0,False,3.29324857,9.304756362108602,23.643784
CuSnAu,3,top-down,P4/mmm,4/mmm,tetragonal,0.0,False,3.21699875,3.21699875,28.928377
MgSn2,2,top-down,P-6m2,-6m2,hexagonal,0.0,False,3.32604387,3.3260438020964562,24.89452
NiAgSe2,3,top-down,P3m1,3m,trigonal,0.0,False,3.38461439,3.3846146786972606,25.052195
CaBO3,3,top-down,P2_1/m,2/m,monoclinic,0.5146999999999995,False,3.53983509,5.35334539,24.308612
MgCoGe,3,top-down,P4/nmm,4/mmm,tetragonal,0.0,False,3.8217253,3.8217253,23.964521
Mg2Fe,2,top-down,Pmma,mmm,orthorhombic,0.0,False,2.99038714,4.57885485,26.375622
Ca2SiO4,3,top-down,P3m1,3m,trigonal,0.0,False,6.319559068511086,6.319559141376996,25.742351
Tl2Ge2S5,3,top-down,C2,2,monoclinic,2.6894000000000005,False,10.463080203936252,10.463080083701087,25.224806
SrCu,2,top-down,P6/mmm,6/mmm,hexagonal,0.0,False,4.28495645,4.284956603549132,24.000798
Li2GeN2,3,top-down,P2_1/c,2/m,monoclinic,2.5044000000000004,False,5.77535345,6.54662802,24.9961
NdGe5,2,top-down,Pmmm,mmm,orthorhombic,0.0,False,3.52794523,6.54062472,23.414028
Cu2BrO3,3,top-down,P2_1/m,2/m,monoclinic,0.0,False,5.32376954,5.81826275,24.398363
NaB(SO4)2,4,top-down,P2/c,2/m,monoclinic,6.0073,True,5.430504046792777,7.827708829687061,26.656665
LaGe5,2,top-down,Pmmm,mmm,orthorhombic,0.0,False,3.55603376,6.70400126,23.460598
Sn4Ir,2,top-down,Pban,mmm,orthorhombic,0.0,False,6.45003908,6.60529201,22.880295
HfMg6Nb,3,top-down,Pmm2,mm2,orthorhombic,0.0,False,4.80627818,6.14122068,23.964876
HgSeO4,3,top-down,Pmn2_1,mm2,orthorhombic,1.9078,False,5.18717829,6.65123707,23.668613
As,1,top-down,P-3m1,-3m,trigonal,1.573,False,3.60614826,3.6061478936945988,21.287882
V2H2O5,3,top-down,C2/m,2/m,monoclinic,1.4918999999999998,False,3.0656266,6.087502454036548,25.42458
YCoGe2,3,top-down,P4/nmm,4/mmm,tetragonal,0.0,False,4.11495436,4.11257782,26.689209
H4W,2,top-down,P4/nmm,4/mmm,tetragonal,0.0233000000000001,False,3.10121735,3.10121735,25.376457
Ga2Fe2S5,3,top-down,P-3m1,-3m,trigonal,0.0,False,3.6123395665220075,3.613157294396209,31.911025
KUClO3,4,top-down,P2_1/m,2/m,monoclinic,1.8820999999999999,False,4.0889532,6.94230403,27.106232