Formula,No. of Elements,Discovery Process,Space Group,Point Group,Crystal System,Band Gap,Is Gap Direct?,a,b,c
NiSb,2,bottom-up,P-6m2,-6m2,hexagonal,0.0,False,4.14379265062311,4.146522047718486,20.000000000795737
Nb4O9,2,bottom-up,P4/n,4/m,tetragonal,0.0,False,9.13894557981856,9.139867329763899,24.323978000054314
Bi2W,2,bottom-up,P-1,-1,triclinic,0.0,False,6.125342746973889,3.4051864960854585,22.809954376036632
BaF2,2,bottom-up,C2/m,2/m,monoclinic,6.147600000000001,False,4.299353502700958,4.2928663797264885,24.86388118762642
CrSb,2,bottom-up,P-1,-1,triclinic,0.0,False,2.966596980033183,3.9819918620717947,23.662689037976346
MgF2,2,bottom-up,C2/m,2/m,monoclinic,6.5248,False,5.823127602112672,5.849526961598102,23.50895677574439
Bi2Mo,2,bottom-up,P-1,-1,triclinic,0.0,False,6.74256572282844,3.373216074189586,22.703757172701305
PCl5,2,bottom-up,Pmmm,mmm,orthorhombic,0.0,False,3.4531659979877554,7.837725168592793,23.758606000000402
Br5N,2,bottom-up,P2,2,monoclinic,0.0,False,3.4219582680844436,8.27398068015048,23.758606254217664
As4C3,2,bottom-up,P-6m2,-6m2,hexagonal,0.1109,False,9.648736755966029,9.648643079913603,20.00000002322371
NbI5,2,bottom-up,Pmmm,mmm,orthorhombic,0.0,False,3.7748455103056866,10.622998716002417,23.74551309544104
MgBr2,2,bottom-up,C2,2,monoclinic,3.7567,True,4.0279384908259,6.686162797513834,24.463899151945036
VI5,2,bottom-up,Pmmm,mmm,orthorhombic,0.0,False,3.566665662229147,10.762291696863786,23.745804298320024
SeN,2,bottom-up,Pc,m,monoclinic,0.02279999999999971,False,4.6438285903666685,15.044637608895679,23.120849161577528
HgTe,2,bottom-up,P3m1,3m,trigonal,0.0,False,4.688489062065045,4.687978368081359,56.58565604413002
C3N4,2,bottom-up,P1,1,triclinic,0.0,False,2.4579614523426745,2.445174293647635,28.159129824595368
MoO2,2,bottom-up,P1,1,triclinic,0.5943,False,6.516852234872777,6.532225705802968,34.031695
CrCl5,2,bottom-up,Pm,m,monoclinic,0.13860000000000028,False,6.361555147210625,5.816679174548309,23.82192577653085
MoBr5,2,bottom-up,Pmmm,mmm,orthorhombic,0.0,False,3.372900880960038,9.74183235342171,23.822045000006568
Ga2Te3,2,bottom-up,P1,1,triclinic,0.20449999999999996,False,6.913687316010819,8.653062908606204,38.174335
VBr5,2,bottom-up,Pmmm,mmm,orthorhombic,0.0,False,5.186216807383382,5.8751782561015045,23.74581719028248
InI3,2,bottom-up,P1,1,triclinic,0.5792999999999999,False,5.795630146275857,8.437026676877506,22.96977793838626
B2Te3,2,bottom-up,P1,1,triclinic,0.0,False,6.455893887763049,6.829630231696402,39.0991193456623
AlAs,2,bottom-up,P1,1,triclinic,0.0,False,9.971972050205848,5.630173441166661,20.08200996087741
N2O3,2,bottom-up,Pmma,mmm,orthorhombic,0.0,False,2.178555360001506,16.2486003701218,24.608730000200243
WCl5,2,bottom-up,Pmma,mmm,orthorhombic,0.0,False,3.1202349845865776,14.39180856483997,23.52580912716442
Sb2W,2,bottom-up,P-1,-1,triclinic,0.04580000000000006,False,5.19640742137541,4.211557749846241,22.588749081167208
CI2,2,bottom-up,P-6m2,-6m2,hexagonal,0.12890000000000001,False,3.676273,3.676273415197107,23.838
KBa,2,bottom-up,P2_1/m,2/m,monoclinic,0.0,False,4.174113656526831,4.046235567324316,26.06998598671579
Al13Sb2,2,bottom-up,P1,1,triclinic,0.0,False,6.902932533538117,6.939182639894723,25.077086898581616
PbO2,2,bottom-up,C2,2,monoclinic,0.9051999999999998,False,6.310231705617292,6.309809569488506,24.50030723218031
NbTe2,2,bottom-up,Pmmm,mmm,orthorhombic,0.0,False,3.731712303067052,2.973298036210968,23.4368821908999
SnO2,2,bottom-up,C2,2,monoclinic,1.9238999999999997,True,6.486960490593927,6.488123153642742,24.521275449002047
BeBr2,2,bottom-up,C2,2,monoclinic,4.6322,False,5.422989014890774,6.2066756359617345,24.65529903689578
TlCl3,2,bottom-up,Pm,m,monoclinic,1.4931999999999999,False,5.158485783813405,7.638138757417411,23.014181856694407
SbPt,2,bottom-up,P-6m2,-6m2,hexagonal,0.0,False,4.368441970020582,4.3735182943774324,20.000000000238696
BiBr5,2,bottom-up,Pmmm,mmm,orthorhombic,0.0,False,6.757870358425772,5.495182888001341,23.758606000000796
WF2,2,bottom-up,Pbam,mmm,orthorhombic,0.6073999999999997,True,9.85163177071157,11.330416075275572,28.49974904270034
Tl2Te3,2,bottom-up,P1,1,triclinic,0.04849999999999999,False,7.382491277540841,9.286637231992687,37.19589852041307
Ga2Te3,2,bottom-up,P1,1,triclinic,0.3653,False,7.829671691534034,7.810174111102323,38.47110101534237
HgSe,2,bottom-up,P3m1,3m,trigonal,0.0,False,4.403238938654703,4.405430177235504,56.550342
GaN5,2,bottom-up,Pc,m,monoclinic,0.6440999999999999,False,4.939742583512336,12.605431435255353,26.805898
AsO2,2,bottom-up,P2_1/m,2/m,monoclinic,1.8728000000000002,False,2.94185467000001,10.119540402938853,22.77552
HgTe,2,bottom-up,P3m1,3m,trigonal,0.0,False,4.695075677034406,4.694116795061573,56.550342
Tl2S3,2,bottom-up,P1,1,triclinic,0.027700000000000058,False,6.920037129235546,8.130313069697527,36.980999
AgBi3,2,bottom-up,Pccm,mmm,orthorhombic,0.0,False,22.28651675087077,5.535554000213696,21.248852
TiBi2,2,bottom-up,P-3m1,-3m,trigonal,0.0,False,3.353728080000014,3.353729161293125,21.950498
NO2,2,bottom-up,P1,1,triclinic,0.0,False,6.008833371530274,6.2568641025219165,33.045502
GaBr3,2,bottom-up,Pm,m,monoclinic,2.3307000000000007,True,3.8466712782222503,10.56493657942673,23.069126
In2Te3,2,bottom-up,P1,1,triclinic,0.0,False,7.139669267396635,9.622801130618738,37.740918
Sn3Bi4,2,bottom-up,P3m1,3m,trigonal,1.3944,True,27.420652748260725,27.363727035548816,20.011135
As4C3,2,bottom-up,P1,1,triclinic,0.9699,False,11.271411766826509,11.098385462452633,20.011135
Tl2Se3,2,bottom-up,P1,1,triclinic,0.32610000000000006,False,7.73064049847747,7.653235774225187,38.350906
Si3Sb4,2,bottom-up,P1,1,triclinic,0.7029999999999998,False,7.8159218626061975,12.247749770834883,20.003048
GaAs,2,bottom-up,P-1,-1,triclinic,0.03620000000000001,False,27.264711579287702,25.505652695889303,29.713778
VRh3,2,bottom-up,P3m1,3m,trigonal,0.0,False,8.243447886305844,8.24824932865354,24.030268
Re2I7,2,bottom-up,P1,1,triclinic,0.0,False,6.546052250022792,14.7879925699611,31.610298
Tl2S3,2,bottom-up,P1,1,triclinic,0.5862,False,7.557172206342302,7.470346812520821,38.382967
Tc2I7,2,bottom-up,P2_1,2,monoclinic,0.0,False,6.794040269299602,15.296790099554801,31.684094
BaCl2,2,bottom-up,C2,2,monoclinic,4.017,False,4.39703809046676,7.906355963138704,24.448686
GaBi,2,bottom-up,P-1,-1,triclinic,0.9453,False,12.593854365587827,14.018503675323407,31.667778
Pb2O5,2,bottom-up,Pc,m,monoclinic,0.18210000000000015,True,4.139489983165801,7.056328169987703,24.876722
InS,2,bottom-up,P-6m2,-6m2,hexagonal,0.32830000000000004,True,3.93961377,3.939612257784551,24.33071181
AlBr,2,bottom-up,P4/nmm,4/mmm,tetragonal,2.1092000000000004,False,4.42175928,4.42175928,23.96746055
Ga2O3,2,bottom-up,P-3m1,-3m,trigonal,2.4769,False,3.02725539,3.0272555990614642,31.09326576
Be2Bi,2,bottom-up,Pmmn,mmm,orthorhombic,0.0,False,4.17931438,4.10947521,25.69449613
Ca2Sb,2,bottom-up,Pmmn,mmm,orthorhombic,0.0,False,4.72570783,6.07699564,25.67186525
Sr2Sb,2,bottom-up,Pmmn,mmm,orthorhombic,0.0,False,4.89201739,6.43521744,27.29196365
Be2Sb,2,bottom-up,Pmmn,mmm,orthorhombic,0.0,False,4.13232763,3.98371178,23.95955816
GaTe,2,bottom-up,P-6m2,-6m2,hexagonal,0.23180000000000023,True,4.277810690000002,4.277808781036919,27.11801407
B2O3,2,bottom-up,P-3m1,-3m,trigonal,3.4413,False,2.4412555200007575,2.4412554331199416,29.49824745001275
In2O3,2,bottom-up,P-3m1,-3m,trigonal,1.2748,False,3.39234819,3.392348512044188,30.37313689
TlTe,2,bottom-up,P-6m2,-6m2,hexagonal,0.4845999999999999,True,4.730316500000007,4.730314007297365,27.14765144
InTe,2,bottom-up,P-6m2,-6m2,hexagonal,0.2489999999999999,True,4.487389760000004,4.487387595458273,27.83276774
Ba2Sb,2,bottom-up,Pmmn,mmm,orthorhombic,0.0,False,5.02595893,6.8932417,27.94016195
BCl,2,bottom-up,P4/nmm,4/mmm,tetragonal,2.8004,False,5.1907074,5.1907074,15.93336907
Sr2As,2,bottom-up,Pmmn,mmm,orthorhombic,0.0,False,4.54514991,6.11822011,26.44496244
BTe,2,bottom-up,P-6m2,-6m2,hexagonal,0.0,False,3.608526960000001,3.6085258455970033,28.03505325
AlTe,2,bottom-up,P-6m2,-6m2,hexagonal,0.32389999999999985,False,4.14535264,4.145350886520539,28.15382143
Mg2Bi,2,bottom-up,Pmmn,mmm,orthorhombic,0.0,False,4.76789996,4.89284,29.00418048
AlF,2,bottom-up,P4/nmm,4/mmm,tetragonal,1.3502000000000003,False,3.70582612,3.70582612,19.74255854
Ba2As,2,bottom-up,Pmmn,mmm,orthorhombic,0.0,False,4.71433523,6.56455195,27.17204643
Sr2P,2,bottom-up,Pmmn,mmm,orthorhombic,0.0,False,4.44279284,5.9913266,26.07156639
TlSe,2,bottom-up,P-6m2,-6m2,hexagonal,0.5426,True,4.474328290000003,4.474326123481587,24.98246964
TlS,2,bottom-up,P-6m2,-6m2,hexagonal,1.0827,True,4.313125660000002,4.3131237561978795,23.52816777
Mg2P,2,bottom-up,Pmmn,mmm,orthorhombic,0.0,False,4.06501362,4.5566254,25.58714666
Ca2As,2,bottom-up,Pmmn,mmm,orthorhombic,0.0,False,4.30980511,5.72653774,25.41694442
Ca2N,2,bottom-up,Pmmn,mmm,orthorhombic,0.0,False,3.54956791,4.88376776,22.14324119
BSe,2,bottom-up,P-6m2,-6m2,hexagonal,0.0,False,3.279871370000006,3.279870641236871,25.90079202
GaS,2,bottom-up,P-6m2,-6m2,hexagonal,0.8716000000000002,True,3.6775419100000004,3.677540695205887,24.09487668
Mg2N,2,bottom-up,Pmmn,mmm,orthorhombic,0.0,False,3.21875377,4.08752084,20.68273033
Ba2N,2,bottom-up,Pmmn,mmm,orthorhombic,0.0,False,3.89832563,5.8194978,24.71260057
InSe,2,bottom-up,P-6m2,-6m2,hexagonal,0.6435,True,4.16920176,4.169199975928271,25.68577998
Be2P,2,bottom-up,Pmmn,mmm,orthorhombic,0.0,False,3.56274551,3.51168254,21.73472258
AlCl,2,bottom-up,P4/nmm,4/mmm,tetragonal,2.4321,False,4.24966214,4.24966214,22.8616899
AlSe,2,bottom-up,P-6m2,-6m2,hexagonal,0.31169999999999987,False,3.7845692100000003,3.7845678743382085,26.23475921
AlS,2,bottom-up,P-6m2,-6m2,hexagonal,0.1049,False,3.5601025200000014,3.5601014324243385,25.02215022
Al2O3,2,bottom-up,P-3m1,-3m,trigonal,4.621,False,2.89495887,2.8949590419542464,30.5868018
BS,2,bottom-up,P-6m2,-6m2,hexagonal,0.0,False,3.081902050000012,3.0819015670135497,22.85226371
Be2As,2,bottom-up,Pmmn,mmm,orthorhombic,0.0,False,3.6976978,3.63631264,22.82921436
BBr,2,bottom-up,P4/nmm,4/mmm,tetragonal,2.5359000000000003,False,5.12729558,5.12729558,18.01354041
Mg2Sb,2,bottom-up,Pmmn,mmm,orthorhombic,0.0,False,4.58171221,4.81524844,28.40213359
BI,2,bottom-up,P4/nmm,4/mmm,tetragonal,0.40769999999999995,False,4.01956716,4.01956716,21.02988897
Sr2N,2,bottom-up,Pmmn,mmm,orthorhombic,0.0,False,3.77126424,5.3031824,23.61798139
Be2N,2,bottom-up,Pmmn,mmm,orthorhombic,0.0,False,2.677073,3.12135494,18.06472623
BF,2,bottom-up,P4/nmm,4/mmm,tetragonal,3.9397999999999995,False,4.69838272,4.69838272,14.94356944
Ca2P,2,bottom-up,Pmmn,mmm,orthorhombic,0.0,False,4.21555026,5.60507675,24.72694274
Ba2Bi,2,bottom-up,Pmmn,mmm,orthorhombic,0.0,False,5.11311602,6.99581844,27.76886961
Ca2Bi,2,bottom-up,Pmmn,mmm,orthorhombic,0.0,False,4.84342842,6.13067932,26.78308309
Ba2P,2,bottom-up,Pmmn,mmm,orthorhombic,0.0,False,4.60626838,6.46068399,26.80831574
Sr2Bi,2,bottom-up,Pmmn,mmm,orthorhombic,0.0,False,5.11905451,6.18729064,30.46681394
O2,1,top-down,P4/mmm,4/mmm,tetragonal,0.0,False,1.79905792,1.79905792,20.0
C3N,2,top-down,Pmmm,mmm,orthorhombic,0.0,False,2.35392709,4.73662427,20.000678
GaN,2,top-down,P-6m2,-6m2,hexagonal,2.1592,False,3.21119894,3.2114346923208954,20.005301
LiB,2,top-down,Pmma,mmm,orthorhombic,0.0,False,3.08620498,7.25587404,20.0
Ga,1,top-down,Pmma,mmm,orthorhombic,0.0,False,2.67149725,2.66230307,22.343883
Sb2Te3,2,top-down,P-3m1,-3m,trigonal,0.6616,False,4.32458447,4.324584298856046,27.395732
Dy2C,2,top-down,P-3m1,-3m,trigonal,0.0,False,3.49816947,3.498169544892382,22.697412
HgBrN,3,top-down,Pmm2,mm2,orthorhombic,0.0,False,4.01675877,4.46057488,21.278058
LiMg,2,top-down,P-3m1,-3m,trigonal,0.0,False,3.1826587,3.182659275235259,27.651655
Al2Zn2S5,3,top-down,P-3m1,-3m,trigonal,1.0572,False,3.66757208,3.667572623157807,31.890956
VTe2,2,top-down,P-3m1,-3m,trigonal,0.0,False,3.654720918564904,3.65518822000538,23.418116
H3W,2,top-down,P2_1/m,2/m,monoclinic,0.0,False,3.06499495,3.08412039,24.141819
TmTe3,2,top-down,P4/nmm,4/mmm,tetragonal,0.0,False,4.32989211,4.33280929,29.016733
Ti2H2O3,3,top-down,P-3m1,-3m,trigonal,0.0,False,3.10227386,3.1222878790599906,26.496727
TiSe,2,top-down,P4/nmm,4/mmm,tetragonal,0.0,False,4.15178522,4.15178522,22.865869
TbTe3,2,top-down,P4/nmm,4/mmm,tetragonal,0.0,False,4.34993778,4.3500435,29.156461
DySb2,2,top-down,C222,222,orthorhombic,0.0,False,3.34388479,3.4618319163345963,24.915313
SiNiSb,3,top-down,P4/nmm,4/mmm,tetragonal,0.0,False,4.06983429,4.06983429,23.746369
CaCoSi,3,top-down,P4/nmm,4/mmm,tetragonal,0.0,False,3.88196174,3.88196174,24.576647
CaSi3Ir,3,top-down,P4mm,4mm,tetragonal,0.0,False,4.16143023,4.16143023,23.491546
Ca2CoO3,3,top-down,C2/m,2/m,monoclinic,1.1445,False,3.833884013220215,3.8338846490997054,24.235133
Zn2Ga2S5,3,top-down,P3m1,3m,trigonal,0.0,False,3.75070969,3.750709645942079,32.2148
BiS,2,top-down,C2/m,2/m,monoclinic,0.0,False,4.005381681829163,4.005381592575863,23.436881
PbS,2,top-down,P3m1,3m,trigonal,2.2287,False,3.91465099,3.914651389310433,21.598773
SN,2,top-down,P4/nmm,4/mmm,tetragonal,0.0,False,3.64992028,3.64992028,21.297207
Mg2Sn,2,top-down,P6/mmm,6/mmm,hexagonal,0.0,False,4.95584558,5.006459443948511,20.0
CoO2,2,top-down,Pmmm,mmm,orthorhombic,0.0,False,2.6552235,3.34065581,22.400849
PdS2,2,top-down,P2_1/c,2/m,monoclinic,1.2153,False,5.45774424,5.57586458,21.258494
MnHO2,3,top-down,Cm,m,monoclinic,0.17829999999999968,False,2.9512180032892936,3.24195804136757,23.089957
NbS2,2,top-down,P-6m2,-6m2,hexagonal,0.0,False,3.3652599,3.3652598892507557,23.132218
P,1,top-down,Pm,m,monoclinic,1.2469,False,5.618935856064159,6.343139818032526,23.456171
BC2N,3,top-down,Amm2,mm2,orthorhombic,0.8133000000000004,False,4.994619820065248,5.023872670836537,20.541333
YMg2,2,top-down,Pmmn,mmm,orthorhombic,0.0,False,3.48467695,5.30345705,26.659355
Al3Ru2,2,top-down,P4/mmm,4/mmm,tetragonal,0.0,False,3.04791133,3.04791133,25.544133
TbMgNi,3,top-down,Pmma,mmm,orthorhombic,0.0,False,3.69623762,3.83433659,27.134848
TcCl3,2,top-down,C2/m,2/m,monoclinic,0.1998000000000002,False,5.700457708562056,5.700458256410712,23.219115
Zn3(GaS3)2,3,top-down,P3m1,3m,trigonal,0.0,False,3.770287581275664,3.7702877768360956,35.347466
RbMg6BO7,4,top-down,P4mm,4mm,tetragonal,0.0,False,4.03327875,4.03327875,29.093598
Mn(GaS2)2,3,top-down,P3m1,3m,trigonal,0.0,False,3.70486621,3.7048663203352556,29.123631
Al2Zn2S5,3,top-down,P3m1,3m,trigonal,0.0,False,3.69660453,3.6966043251737455,32.167137
CdPb2(ClO)2,4,top-down,C2/m,2/m,monoclinic,3.7001,False,3.85087097,6.436704090007482,23.908292
IrC2,2,top-down,C2/m,2/m,monoclinic,0.03139999999999965,False,2.77732367,3.6518543489995605,24.321311
NaMnSe2,3,top-down,P3m1,3m,trigonal,0.0,False,4.26022941,4.260229873687172,25.090207
NbTe2,2,top-down,C2/m,2/m,monoclinic,0.0,False,3.62791781,9.913254065344418,24.0761
HfTaNO3,4,top-down,Pmm2,mm2,orthorhombic,2.1169,True,3.23076605,3.87456007,24.57292
NbTe2,2,top-down,P-3m1,-3m,trigonal,0.0,False,3.6889992844231254,3.688999500412429,23.682192
SrMg2,2,top-down,Pmma,mmm,orthorhombic,0.0,False,3.56627931,5.78977095,28.553664
HoCoGe2,3,top-down,P4/nmm,4/mmm,tetragonal,0.0,False,4.08502657,4.08480201,26.779224
Ho(CuS)2,3,top-down,P-3m1,-3m,trigonal,0.0,False,3.878394271279974,3.8783944856080885,24.290997
Zn(GaS2)2,3,top-down,P3m1,3m,trigonal,0.0,False,3.72342424,3.723423953426338,29.109028
MgBi2,2,top-down,Pmma,mmm,orthorhombic,0.0,False,3.46243108,5.8317727,27.515123
FeHO2,3,top-down,Pmn2_1,mm2,orthorhombic,1.0621,True,2.63857492,4.00331704,25.853382
Ga,1,top-down,P4/mmm,4/mmm,tetragonal,0.0,False,2.62146998,2.62146998,20.0
P,1,top-down,P-3m1,-3m,trigonal,1.9673000000000003,False,3.2964704100000004,3.2964706776340558,21.137996
CaFeSO,4,top-down,P3m1,3m,trigonal,0.0,False,3.91377969,3.9137788713999,23.679323
PbS,2,top-down,P4/nmm,4/mmm,tetragonal,1.7007,False,4.22005928,4.22521503,22.91151
Co(ClO3)2,3,top-down,C2/m,2/m,monoclinic,0.2801,False,4.8697179,6.072054857216924,22.732705
TiZn(BiO3)2,4,top-down,Cm,m,monoclinic,0.0,False,3.845828409894938,3.8458290151349166,28.528207
CeI3,2,top-down,Pmmn,mmm,orthorhombic,0.03059999999999996,False,4.28847495,10.05459327,24.803877
PdN2,2,top-down,Pmmm,mmm,orthorhombic,0.0,False,2.96212821,5.0254793,20.0
Te2W,2,top-down,P-6m2,-6m2,hexagonal,1.0613,True,3.565227863326529,3.565227603639486,23.646143
LiMg2,2,top-down,P-3m1,-3m,trigonal,0.0,False,3.20069755,3.2006975502663564,32.46212
U2S,2,top-down,P2/c,2/m,monoclinic,0.0,False,6.172989182903312,6.917408175627348,20.206464
TePt,2,top-down,P-3m1,-3m,trigonal,0.0,False,3.97200558,3.972005028988281,23.95034
NbCl2O,3,top-down,Pmm2,mm2,orthorhombic,0.8247000000000004,False,3.92592904,6.73563871,23.913364
MgBi,2,top-down,Pmm2,mm2,orthorhombic,0.0,False,3.42306783,5.45123872,27.11141
Sb,1,top-down,P4/mmm,4/mmm,tetragonal,0.0,False,2.95716675,2.95716675,20.0
Nb2CuS4,3,top-down,P-3m1,-3m,trigonal,0.0,False,3.61128736,3.6112877547987843,29.590741
Ca,1,top-down,Cmmm,mmm,orthorhombic,0.0,False,6.637127731157511,6.637127218989256,20.0
LuPb2,2,top-down,P4/mmm,4/mmm,tetragonal,0.0,False,3.70793617,3.70793617,23.77951
LaTe3,2,top-down,P4mm,4mm,tetragonal,0.0,False,4.26809327,4.2647534,24.44792
NdB4,2,top-down,P4/mmm,4/mmm,tetragonal,0.0,False,4.628189717696557,4.628190170386242,20.017554
SiS2,2,top-down,P2_1/c,2/m,monoclinic,3.2969,False,5.91777858,7.76160652,23.134411
Mg(BrO3)2,3,top-down,C2/m,2/m,monoclinic,4.2246,False,4.937968733237078,4.937968676998567,23.412288
US3,2,top-down,Pmmn,mmm,orthorhombic,0.0,False,3.91053164,5.40021723,25.92539
ZnSnO3,3,top-down,P-31m,-3m,trigonal,2.2972,False,5.455929850000002,5.4559296984710715,23.846364
NpSe3,2,top-down,P2_1/m,2/m,monoclinic,0.0,False,4.05155052,5.69446577,26.309874
PrTe3,2,top-down,P4/nmm,4/mmm,tetragonal,0.0,False,4.40977799,4.41176623,29.512985
Tb(CuS)2,3,top-down,P-3m1,-3m,trigonal,0.0,False,3.8798356258974063,3.8798354020998618,24.186444
NdAl3Cu,3,top-down,P4mm,4mm,tetragonal,0.0,False,4.08808182,4.08808182,23.640089
Mg2Sn,2,top-down,P-3m1,-3m,trigonal,0.0,False,3.25674027,3.2567403390789127,33.038258
LiH2N,3,top-down,P-42_1m,-42m,tetragonal,3.2009,True,3.62139128,3.62139128,23.369072
CaMg2,2,top-down,Pmmn,mmm,orthorhombic,0.0,False,3.41517055,5.51087708,27.283738
PbSe,2,top-down,P4/nmm,4/mmm,tetragonal,1.3248000000000002,True,4.38700546,4.38684937,22.947413
Zn(ReO4)2,3,top-down,P-3,-3,trigonal,4.0205,False,5.79041462,5.7904150399025385,27.049892
Zn2Ga2S5,3,top-down,P3m1,3m,trigonal,0.0,False,3.75169847,3.7516980411044236,32.258493
CrTe4Au,3,top-down,P2/m,2/m,monoclinic,0.0,False,3.8676521,6.54941815,23.273818
Mg6BC,3,top-down,Pmm2,mm2,orthorhombic,0.0,False,4.0233985,8.27112597,22.444003
CoO2,2,top-down,C2/m,2/m,monoclinic,0.0,False,2.8511989646554268,2.8511990897970447,21.95801
CN2,2,top-down,P-42_1m,-42m,tetragonal,4.846,False,3.31096334,3.31096334,21.526957
DyTe3,2,top-down,Pmma,mmm,orthorhombic,0.0,False,4.05448118,4.58017822,30.585538
Zn2Ga2S5,3,top-down,P-6m2,-6m2,hexagonal,0.9367000000000001,False,3.69413264,3.6941326736110747,31.940758
NbS2,2,top-down,P4/mmm,4/mmm,tetragonal,0.0,False,3.06962974,3.06962974,22.960738
CdNCl3,3,top-down,P2_1/m,2/m,monoclinic,1.2258,True,5.50890898,7.16571164,24.30665
ZrSn,2,top-down,Pmmn,mmm,orthorhombic,0.0,False,3.09816338,5.19631268,30.768805
AlN,2,top-down,P-6m2,-6m2,hexagonal,2.893,False,3.1312699300000006,3.131270329614054,20.0
NiHO2,3,top-down,Cm,m,monoclinic,0.0,False,2.89769251,3.004856741060723,23.051091
ErNiGe2,3,top-down,P4/nmm,4/mmm,tetragonal,0.0,False,4.02581462,4.02307616,26.983693
SnO,2,top-down,C2/m,2/m,monoclinic,2.1348000000000003,False,3.5019020158598804,3.5019027727955048,22.789061
B13P2,2,top-down,P-3m1,-3m,trigonal,0.0,False,4.80998889,4.809988529344343,25.085586
ZnMoO4,3,top-down,P2/c,2/m,monoclinic,3.0685,False,4.834960602319694,4.823385267903352,24.373452
RbHfMg6O7,4,top-down,P4mm,4mm,tetragonal,0.0,False,4.21815518,4.21815518,29.059066
PbS,2,top-down,Pmm2,mm2,orthorhombic,0.9398000000000002,False,3.86569705,11.29805081,25.046867
FeO2,2,top-down,Pmmn,mmm,orthorhombic,0.39369999999999994,False,2.85817798,4.08590732,24.402121