Formula,No. of Elements,Discovery Process,Space Group,Point Group,Crystal System,Band Gap,Is Gap Direct?,a,b,c
TbCl3,2,top-down,Pmmn,mmm,orthorhombic,3.8689999999999998,True,3.79546908,8.49442663,23.980684
MgMnGe,3,top-down,P4/nmm,4/mmm,tetragonal,0.0,False,3.83098697,3.83098697,24.352829
CrHO2,3,top-down,P3m1,3m,trigonal,1.1115,False,3.05881907,3.058819470698237,23.080355
InSe,2,top-down,C2/m,2/m,monoclinic,2.1011,False,4.10007472,6.007362606741232,23.241441
Te2Ir,2,top-down,P-3m1,-3m,trigonal,0.0,False,3.8543609,3.8543599853835744,22.733189
Al3Ir,2,top-down,P-6m2,-6m2,hexagonal,0.0,False,4.12734834,4.127348017225812,25.130928
SrBrF,3,top-down,P4/nmm,4/mmm,tetragonal,5.4039,True,4.07636,4.07636,25.298065
InGaS3,3,top-down,Pmn2_1,mm2,orthorhombic,2.0327,False,3.78187403,6.22056311,27.260366
Eu(CdP)2,3,top-down,P-3m1,-3m,trigonal,0.0,False,4.31202555,4.312025471231251,25.184444
TlI,2,top-down,P4/nmm,4/mmm,tetragonal,2.7058,False,4.95210139,4.91642492,23.633843
ZrNCl,3,top-down,P3m1,3m,trigonal,3.1781999999999995,False,3.45488203,3.4548821714910893,22.45038381
Y6C2I7,3,top-down,C2/m,2/m,monoclinic,0.0,False,3.92771608,10.917883706848523,29.295088
Nb3SBr7,3,top-down,P3m1,3m,trigonal,0.7879,True,7.15487859,7.154878290596177,23.443364
AgI,2,top-down,P3m1,3m,trigonal,1.7483999999999997,True,4.76641918,4.7664190024947635,20.195505
BiSe,2,top-down,P-3m1,-3m,trigonal,0.0,False,4.24205149,4.242051471280966,60.986141
CrBr3,2,top-down,P-31m,-3m,trigonal,1.4035999999999995,False,6.3460316,6.346032411618948,22.871559
AlO2,2,top-down,Pmmn,mmm,orthorhombic,0.0,False,2.96430223,3.61059383,24.082975
Xe(OF)2,3,top-down,Amm2,mm2,orthorhombic,1.995000000000001,False,4.453305558475165,4.453305587702802,24.086046
As2O3,2,top-down,P2_1,2,monoclinic,3.9015,False,4.64032768,8.19932977,22.195413
TlF,2,top-down,P4/nmm,4/mmm,tetragonal,3.5771,False,3.73328417,3.73328417,23.116201
ZrNCl,3,top-down,P-3m1,-3m,trigonal,3.0509,False,3.45203596,3.452036103056603,28.240407
AlO2,2,top-down,P-4m2,-42m,tetragonal,0.0,False,3.14889257,3.16645055,21.564055
TlF,2,top-down,P4mm,4mm,tetragonal,2.3390000000000004,False,4.36912526,4.36912526,22.485028
IrCl3,2,top-down,P-31m,-3m,trigonal,2.134,False,6.084349567050957,6.084349646360392,22.532319742731573
Sr4Mn3(ClO4)2,4,top-down,P4/mmm,4/mmm,tetragonal,0.0,False,3.88138675,3.88138675,34.105416
YBC,3,top-down,Pmma,mmm,orthorhombic,0.0,False,3.39940914,3.53388652,23.999297
As2O3,2,top-down,Pc,m,monoclinic,4.322,True,4.5425978851519595,5.409347951535248,23.91260614
NdBr3,2,top-down,Pmmn,mmm,orthorhombic,2.9850999999999996,True,4.09757383,9.19675426,24.388943
GaSe,2,top-down,P-6m2,-6m2,hexagonal,0.7553000000000001,False,3.92116562,3.921165637869431,25.282452
GaSe,2,top-down,P3m1,3m,trigonal,0.1025999999999998,False,3.90710354,3.907103556579095,21.250951
Tl2O3,2,top-down,P-3m1,-3m,trigonal,0.6627000000000001,True,3.51322791,3.5132275468241323,24.629216
MoO3,2,top-down,Pm,m,monoclinic,1.0951999999999993,False,3.6330823,3.8411181230391302,22.566862003811053
Nb3TeCl7,3,top-down,P3m1,3m,trigonal,0.7475999999999998,True,6.93560335,6.9356039944233,23.727367
Y2Cl3,2,top-down,C2/m,2/m,monoclinic,0.7872,False,3.79373309,9.517035332729941,25.256741
YBC,3,top-down,P4mm,4mm,tetragonal,0.0,False,3.55135747,3.5565421,21.490856
RbC2,2,top-down,P4/nmm,4/mmm,tetragonal,0.4991000000000003,True,4.50676669,4.50676669,25.1287152
ZnH2SeO4,4,top-down,Pc,m,monoclinic,4.4671,False,4.810047465580104,5.728849702311055,23.945279
SbAsO3,3,top-down,Pc,m,monoclinic,3.9209,False,4.507020847855621,5.420530164044665,24.13159
MoO3,2,top-down,P2_1/m,2/m,monoclinic,1.5067999999999993,False,3.75165577,3.8881384946367454,26.303697935056668
PPdS,3,top-down,P2/c,2/m,monoclinic,1.1236999999999997,False,5.71390584,5.75083463,24.180308
PAuS,3,top-down,Pc,m,monoclinic,1.0822000000000003,False,5.58049176,5.65971147,21.377149
AgI,2,top-down,P-3m1,-3m,trigonal,2.0285,True,4.48688852,4.486888370810877,23.640584
Sr(BiO2)2,3,top-down,P2_1/m,2/m,monoclinic,2.6793,False,4.36811008,6.27759714,26.593122
B2S3,2,top-down,P-62m,-6m2,hexagonal,1.8595000000000002,True,5.45006973,5.450069897130184,20.011837
SrThBr6,3,top-down,Pmm2,mm2,orthorhombic,1.9392999999999998,False,4.2211686,9.28863199,24.54291918
Bi(PdO2)2,3,top-down,P4/nmm,4/mmm,tetragonal,0.0,False,6.83740557,6.83740557,24.47578556
PAuS,3,top-down,Pca2_1,mm2,orthorhombic,0.7426000000000001,False,5.62842481,5.69350094,25.397318
CdP2(HO)4,4,top-down,P2/c,2/m,monoclinic,4.554,False,5.48541519,6.51909381,26.444816
Ta2Se,2,top-down,P4/nmm,4/mmm,tetragonal,0.0,False,3.39573701,3.39573701,27.221538
Sn2IF3,3,top-down,P2_12_12,222,orthorhombic,2.9524,True,4.29673771,8.87739391,27.253159
BaThBr6,3,top-down,Pmm2,mm2,orthorhombic,1.9956999999999998,False,4.30544801,9.57987668,24.70629998
Na2Cl,2,top-down,P-3m1,-3m,trigonal,0.0,False,3.87145798,3.871457653082255,23.72943249
TiBr3,2,top-down,C2/m,2/m,monoclinic,0.0,False,6.3281143173749435,6.367019665975663,23.094512
FeMoClO4,4,top-down,P4/nmm,4/mmm,tetragonal,2.202,True,6.76336838,6.76336838,27.476897
As3(HO2)5,3,top-down,P-1,-1,triclinic,3.4169,False,4.752073387640347,7.496624196433135,26.99025869809425
CaP2(HO)4,4,top-down,P2/c,2/m,monoclinic,5.5087,False,5.67249426,6.62607839,26.56556
HfS3,2,top-down,Pmmn,mmm,orthorhombic,1.1468,False,3.60243733,5.13713448,25.891587
BiOF,3,top-down,P-3m1,-3m,trigonal,3.4159,False,3.96517487,3.965174736929995,24.77518996
HgPS3,3,top-down,P-1,-1,triclinic,1.9052999999999998,True,6.325671423851549,6.310144337027371,23.941242055839865
Zr2CuGe4,3,top-down,P4/nmm,4/mmm,tetragonal,0.0,False,3.80590115,3.80224601,34.955403
FeSn2(CN)6,4,top-down,P-3,-3,trigonal,3.6406000000000005,False,7.19580177,7.195801225284517,25.97717076
LiV(OF)2,4,top-down,P1,1,triclinic,3.3033,False,3.8717488958266943,6.777514915837721,22.025043877153276
BaTl(SnO3)2,4,top-down,P4mm,4mm,tetragonal,0.0,False,3.9189718352913334,3.933140868507771,30.575280455854557
TiO2,2,top-down,P-3m1,-3m,trigonal,2.6534999999999997,False,2.99222746,2.992227007123706,21.93527
Pr2I5,2,top-down,P2_1/m,2/m,monoclinic,0.15589999999999993,False,4.31905354,16.91773532,25.770652
VOF2,3,top-down,Pmm2,mm2,orthorhombic,2.1064999999999996,False,3.064561903527527,3.7099553928261284,22.458650829403215
RbC2,2,top-down,P4mm,4mm,tetragonal,0.9335,False,7.14976946,7.14976946,24.320905
MgBr2,2,top-down,P-3m1,-3m,trigonal,4.851,True,3.85105869,3.851058750715679,23.016286
ZnPS3,3,top-down,P-31m,-3m,trigonal,2.1485,False,5.998588409888308,5.998587836971592,23.233791
ZnTeMoO6,4,top-down,P2_12_12,222,orthorhombic,3.1117,False,5.0472637,5.33714293,27.736057
TaCoTe2,3,top-down,P2_1/c,2/m,monoclinic,0.009600000000000053,True,6.354371,7.76752371,24.659793
Ta2NiS5,3,top-down,Pmmn,mmm,orthorhombic,0.0,False,3.43268489,15.20736397,24.13582495
LiCuCO3,4,top-down,P1,1,triclinic,2.0866999999999996,False,5.057835036979984,5.0732826769242605,19.28973801589738
SbO2,2,top-down,P6/mmm,6/mmm,hexagonal,0.0,False,3.64160351,3.6416039788586385,23.731552
Mg(IO3)2,3,top-down,P1,1,triclinic,3.6449999999999996,False,5.478572420053666,5.499501634479478,23.28157
I2O5,2,top-down,P2_1,2,monoclinic,2.7277,True,5.0497113,11.03320623,22.994073
PuBr3,2,top-down,Pmmn,mmm,orthorhombic,0.0,False,3.99372237,9.05191436,24.421902
Ca3Cu2(BrO2)2,4,top-down,P4/mmm,4/mmm,tetragonal,0.0,False,3.85830896,3.85830896,29.19021
Sb4Br2O5,3,top-down,P2_1/c,2/m,monoclinic,2.8648000000000007,False,5.16619681,13.4476380062023,25.552326311352513
DyZnPO,4,top-down,P-3m1,-3m,trigonal,1.5089000000000001,True,3.8905716,3.8905716277642615,28.327256
Tl2Sn(AsS3)2,4,top-down,P-3,-3,trigonal,1.6514,False,6.70838275,6.708382662402346,25.33825066
HfS2,2,top-down,P-3m1,-3m,trigonal,1.3020999999999998,False,3.63960199,3.639601556885424,22.8769613
Zn(HO)2,3,top-down,P-3m1,-3m,trigonal,2.3383000000000003,True,3.2067226,3.206722474868263,24.04927
CrCl3,2,top-down,P-31m,-3m,trigonal,1.6135000000000006,False,5.97639833,5.976206104543513,22.676999
NaInBr4,3,top-down,P2_1,2,monoclinic,3.1802000000000006,True,6.58197145,10.3961757,23.752616
Te4MoBr,3,top-down,C2/m,2/m,monoclinic,1.0144999999999997,False,6.870222415742351,8.795942425111619,24.566091
Zr(MoO4)2,3,top-down,P-3m1,-3m,trigonal,3.2285000000000004,False,6.17194325384809,6.171943723578703,22.314724
SrBi5O9,3,top-down,Pm,m,monoclinic,0.0,False,3.9004760953640782,7.012153983629231,27.444308
Nb3TeI7,3,top-down,P3m1,3m,trigonal,0.6069,False,7.69898263,7.698983004133042,24.02317673
AgIO3,3,top-down,Pc,m,monoclinic,2.2710999999999997,False,5.787437212208369,7.099002711587647,25.71165088
Cr2SiO4,3,top-down,C222,222,orthorhombic,0.0,False,6.39487849,6.278525274027107,22.039992
LiCuCO3,4,top-down,P-1,-1,triclinic,2.0964,False,4.9782311576581355,5.059764863197387,23.354317
NbNiTe2,3,top-down,Pmna,mmm,orthorhombic,0.0,False,6.29264341,8.00875459,24.686329
ZrBrN,3,top-down,Pmmn,mmm,orthorhombic,1.736,True,3.63648035,4.15704475,25.986824
ZrTe5,2,top-down,Pmmn,mmm,orthorhombic,0.022599999999999953,True,4.05300774,13.86944153,25.42203323
Re(TeCl6)2,3,top-down,P-1,-1,triclinic,0.7389000000000001,False,6.474901235249826,6.931987219314274,28.805073
TlInS2,3,top-down,P1,1,triclinic,1.5931,False,3.9509391219825236,5.022593027580723,23.424122
Sb2Te4Pb,3,top-down,P-3m1,-3m,trigonal,0.7736000000000001,False,4.39843434,4.398434266112583,31.246742
Ta4AgS8,3,top-down,Pm,m,monoclinic,0.0,False,5.8152317399507,6.7225953651783845,25.156056537459698
Si2Hg6O7,3,top-down,P2/m,2/m,monoclinic,1.9149999999999996,False,6.225796272441686,10.872339583104726,23.80699
Co2Te3O8,3,top-down,C2,2,monoclinic,2.4755000000000003,False,5.16282811,6.892351084431414,25.103181
SrThBr6,3,top-down,Pmma,mmm,orthorhombic,2.4328000000000003,False,4.38740086,9.25792959,30.826438
ZnTeMoO6,4,top-down,P2,2,monoclinic,3.0467,True,5.389897844204289,5.34100515927418,24.097521
Li2MnF6,3,top-down,P2_12_12,222,orthorhombic,2.8752,True,4.62298725,4.832393553773597,26.472086094875596
AgSb2F12,3,top-down,P-1,-1,triclinic,0.45419999999999927,False,5.088765153317629,5.46925531833181,27.632437
CrBrO,3,top-down,Pmmn,mmm,orthorhombic,1.5075000000000003,False,3.33852157,3.91916895,25.37162064
Ag2S,2,top-down,P2_1/m,2/m,monoclinic,1.5692,True,4.674665011528776,6.05411391,25.796950249657886
Li2UBr6,3,top-down,P-31m,-3m,trigonal,0.1522000000000001,True,6.84960726,6.8496065929574,23.112128
Ta3Te14Pd3,3,top-down,Pm,m,monoclinic,0.0,False,3.7941877,21.9910082,24.375297
YFeF5,3,top-down,Pmmm,mmm,orthorhombic,0.0,False,4.44995218,8.32749894,24.393095
La2PBr2,3,top-down,P-3m1,-3m,trigonal,0.0,False,4.2483915,4.248391099119443,27.28582997
Fe4Cu2S7,3,top-down,Pmm2,mm2,orthorhombic,0.0,False,5.14323376,8.11651176,23.790736
Mg(IO3)2,3,top-down,P2_1,2,monoclinic,3.3735,False,5.33862145,5.70355028,27.130015
MgSb2O5,3,top-down,Pm,m,monoclinic,1.1673,False,3.072950895283206,4.837502992180096,24.499818
LiV(OF)2,4,top-down,P2_1/m,2/m,monoclinic,2.9701,False,3.89433258,6.700468910131022,23.15297736150515
BiBr3,2,top-down,C2/m,2/m,monoclinic,2.9703,False,7.177004431744261,7.1770043044192136,23.476143
Rb2O,2,top-down,P31m,3m,trigonal,0.3167,False,7.205067195104128,7.204514929390225,22.80954586932929
BaTl(CoO3)2,4,top-down,P4mm,4mm,tetragonal,0.0,False,3.6861815222508034,3.6864567926659975,30.731294
Nb2CS2,3,top-down,P-3m1,-3m,trigonal,0.18609999999999993,False,3.29617795,3.296178472033751,25.713672
Bi2P4O13,3,top-down,C2,2,monoclinic,4.1929,False,6.90844862,6.914982076014988,24.918914
Ba2Bi3O7,3,top-down,Pmm2,mm2,orthorhombic,0.0,False,4.378645379615941,4.391128499378919,28.756053082750164
SbTe,2,top-down,P-3m1,-3m,trigonal,0.0,False,4.34272733,4.3427278698783285,61.447697
Rb2Sn(H2N)6,4,top-down,P-3,-3,trigonal,2.5644,True,6.59926843,6.599268346371921,24.44721
PrBrO,3,top-down,P-3m1,-3m,trigonal,4.1672,False,4.04994805,4.049948760557508,26.964659
RbPbF3,3,top-down,P2_1/m,2/m,monoclinic,4.1895999999999995,False,4.60528870882297,4.719754781570311,26.397745
KH2I3O,4,top-down,Pc,m,monoclinic,1.9436000000000002,False,4.5241545616269025,8.449341569293544,29.20577737
SiO2,2,top-down,C2,2,monoclinic,3.4312,False,4.995135878539617,4.995135291896234,24.510254
Ba2Mn3O8,3,top-down,P4/mmm,4/mmm,tetragonal,0.0,False,3.869137718472361,3.8698370835081604,28.21725378
Ag2CO3,3,top-down,P2_1/m,2/m,monoclinic,1.3333999999999997,False,3.15173923,9.48733982,24.02648
NiC2(SN)2,4,top-down,C2/m,2/m,monoclinic,0.2856000000000001,False,3.69019502,5.522486860883328,23.093177700378398
SiBi2O5,3,top-down,Pmc2_1,mm2,orthorhombic,2.2089,False,3.9092293,10.84585299,25.5511273
SnPHO4,4,top-down,Pc,m,monoclinic,3.645,True,4.58727426535893,5.8231733228515035,26.512697
TbH2Br,3,top-down,P-3m1,-3m,trigonal,1.8569,False,3.77716725,3.777167128794674,27.126897
BiTeIO3,4,top-down,P2_1/c,2/m,monoclinic,2.4013,False,7.08024277,8.04604048,26.641518
FeHO2,3,top-down,Pmn2_1,mm2,orthorhombic,1.9136,False,3.09152719,3.90470821,25.67903747
CrSbO4,3,top-down,P2/m,2/m,monoclinic,2.1238999999999995,False,3.11735596,5.33994427,22.040234
Nb3SiTe6,3,top-down,Pmc2_1,mm2,orthorhombic,0.0,False,6.43102805,11.64487328,23.827663
HoBrO,3,top-down,Pmmn,mmm,orthorhombic,4.5752,False,3.81798326,4.13300024,26.2136625
Mn(CoO3)2,3,top-down,P-31m,-3m,trigonal,0.0,False,5.08284697,5.093567387574336,21.9031
Sr2MnClO3,4,top-down,P4/nmm,4/mmm,tetragonal,0.0,False,3.88780447,3.88780447,32.505273
Hg2MoO4,3,top-down,P2/c,2/m,monoclinic,2.2549000000000006,False,5.009915530592016,7.998912577890254,24.603396
LiBH4,3,top-down,P3m1,3m,trigonal,6.3578,True,4.10097997,4.100980376867608,21.623929
VO2,2,top-down,P6/mmm,6/mmm,hexagonal,0.0,False,3.20723369,3.2072337865388367,23.2356631
TmBrO,3,top-down,Pmmn,mmm,orthorhombic,4.6556999999999995,False,3.76245657,4.11027721,26.11410618
Ba2TiO4,3,top-down,P4/mmm,4/mmm,tetragonal,1.9356,True,3.9745187,3.97471547,23.9482379
MgSnF4,3,top-down,P2,2,monoclinic,4.954400000000001,False,5.042244663679149,5.4412106334111,25.106936
BiSe,2,top-down,P4/nmm,4/mmm,tetragonal,0.0,False,4.15947400944179,4.159474026446824,23.97315279121588
FeClO,3,top-down,Pmmn,mmm,orthorhombic,1.8549000000000002,False,3.29714455,3.87519867,25.25337
Ti(WO4)2,3,top-down,P-1,-1,triclinic,2.7574,True,4.9000962958201875,5.204163712389511,25.403725
PuI3,2,top-down,Pmmn,mmm,orthorhombic,0.0,False,4.2031501,9.92693893,24.890906
BaCuReO5,4,top-down,P4mm,4mm,tetragonal,0.0,False,3.79216343,3.79216343,25.26303609
LiCuCO3,4,top-down,Pmma,mmm,orthorhombic,2.4556999999999998,False,5.281825181156293,8.761708646597159,20.076441
V4Ag2O11,3,top-down,C2/m,2/m,monoclinic,1.4207,False,3.61305101,8.324154642827734,25.947563097690523
TiCl3,2,top-down,C2/m,2/m,monoclinic,0.0,False,6.00759138,5.985534347544198,22.878861
ZrH3NF4,4,top-down,P-1,-1,triclinic,5.0409999999999995,False,5.9419337426115835,8.092386533493313,26.860622935654916
NaH4IO2,4,top-down,P-1,-1,triclinic,3.8925,False,5.987740627486015,6.549251481879882,24.521351
Ni(IO3)2,3,top-down,P1,1,triclinic,3.0288000000000004,False,5.416050896191026,5.400026612368878,23.123736
Ba2Sb2O5,3,top-down,P2_1/m,2/m,monoclinic,3.0636,False,6.28589006,8.28266128,26.480444
BaCuSbO5,4,top-down,P4mm,4mm,tetragonal,0.0,False,3.759677814996605,3.758592955115709,25.768147
FeO2,2,top-down,P-3m1,-3m,trigonal,0.0,False,2.97649364,2.976493608439598,21.943237
TlVO3,3,top-down,Pbcm,mmm,orthorhombic,3.3118999999999996,False,5.80414012,12.44307548,21.65419075
Ti(CoO3)2,3,top-down,C2,2,monoclinic,0.29130000000000056,False,3.0378829119126407,7.550941999345639,21.935852
Sb4Cl2O5,3,top-down,P2_1/c,2/m,monoclinic,3.2062,False,5.1795427,13.45779624,26.210622
Ta4AgS8,3,top-down,P2_1/m,2/m,monoclinic,0.0,False,5.819655062341422,6.722642796460487,30.492913
ReSe2,2,top-down,P-1,-1,triclinic,1.2463,False,6.676356742452943,6.795801734830589,23.795878
ZrIN,3,top-down,P-3m1,-3m,trigonal,1.8319999999999999,True,3.75345442,3.753455017845943,27.01513455
CrPO4,3,top-down,C2/m,2/m,monoclinic,1.9944999999999995,True,4.759842442979087,4.759842302481484,26.50799590390028
BaThBr6,3,top-down,Pmma,mmm,orthorhombic,2.5187999999999997,False,4.49472109,9.50112529,27.21566163
NdTe3,2,top-down,P4/nmm,4/mmm,tetragonal,0.0,False,4.39598967,4.39877479,29.439059
TlP5,2,top-down,Pmc2_1,mm2,orthorhombic,1.3461999999999998,True,6.5266142,12.23966348,26.806846
RbAsO2,3,top-down,Pbcm,mmm,orthorhombic,4.1262,True,5.56717736,7.74180034,25.305013
Ca(BiO2)4,3,top-down,Pm,m,monoclinic,0.2554000000000003,False,3.455460512310622,10.52467559028867,25.552337747752762
AgHgSBr,4,top-down,Pmma,mmm,orthorhombic,1.2353,False,4.45284725,9.96593344,30.048498
MgBi2O5,3,top-down,Pm,m,monoclinic,0.3193999999999999,False,3.494647945241831,4.847591950832176,25.732414
MgSb2O5,3,top-down,P-1,-1,triclinic,1.6289,False,3.2908519481007215,5.218613893057614,26.37204335819483
Al2CdCl8,3,top-down,Pc,m,monoclinic,4.0137,True,7.00643439226298,12.754938871770312,27.19977266
TlAsS2,3,top-down,P2_1,2,monoclinic,1.7922000000000002,True,6.10019665,11.54365098,24.784441
BaNiF4,3,top-down,Pmn2_1,mm2,orthorhombic,4.2697,False,4.06627897,5.93746699,26.557656
Ti3H2O7,3,top-down,Pm,m,monoclinic,2.8305999999999996,False,3.75874161,9.33998657,28.631183
U(HO2)2,3,top-down,Pmna,mmm,orthorhombic,1.8739,True,4.29800764,6.87930915,23.421314
NaAu(SO4)2,4,top-down,P-1,-1,triclinic,1.8368000000000002,False,4.8178682092925005,8.013522499471335,26.403913
B3C10N3,3,top-down,Pmm2,mm2,orthorhombic,0.8140000000000001,False,5.01174699,8.66047697,20.0
CaCr2F12,3,top-down,P-1,-1,triclinic,1.4047999999999998,False,5.2513515573701675,5.5388563496098095,27.014802633786672
CdP2H6O7,4,top-down,P-1,-1,triclinic,4.4815000000000005,False,6.763586558142372,7.581900182239578,28.3793
Sb2TeSe2,3,top-down,P-3m1,-3m,trigonal,0.7533,False,4.15728357,4.157283833927814,27.164394
BaCuWO5,4,top-down,P4mm,4mm,tetragonal,0.0,False,3.82269102,3.82269102,25.76711592
ZrTe2Br5,3,top-down,P2/m,2/m,monoclinic,1.1225999999999998,False,9.28376214,11.43505752,23.696412
CdCN2,3,top-down,P3m1,3m,trigonal,0.0,False,3.67382234,3.6738225951044208,23.30262
NbSe2,2,top-down,P-6m2,-6m2,hexagonal,0.0,False,3.491454,3.4914541211181627,23.369992
Mn(HO)2,3,top-down,P3m1,3m,trigonal,2.0542999999999996,True,3.59970678,3.5997067029411594,22.78086428
Lu4B3C4,3,top-down,P-1,-1,triclinic,0.0,False,3.502984791967918,3.5112736137592315,29.993741402377776
BaCaI4,3,top-down,P2/m,2/m,monoclinic,3.7336,True,4.7304961,8.365982865869547,23.798453456958157
AuClO2,3,top-down,P222_1,222,orthorhombic,1.1327999999999996,True,4.03054376,7.29785697,22.803907
HoSb2,2,top-down,C222,222,orthorhombic,0.0,False,3.32921316,3.467263339875432,24.927071
Te3(PdBr)4,3,top-down,P-1,-1,triclinic,0.7376,False,8.519088498032524,10.124868421498768,27.212374
TiCo3O8,3,top-down,P-3m1,-3m,trigonal,0.06770000000000032,False,5.87637927,5.8763790768945166,21.95394765
Nb2VZn2O8,4,top-down,P2/c,2/m,monoclinic,0.9313,False,5.346027309966017,6.066428744957083,26.81211730758259
ZrTiTe4,3,top-down,P2/m,2/m,monoclinic,0.0,False,3.85399974,6.746895295062194,23.632572305027622
Hg2SO4,3,top-down,P2/c,2/m,monoclinic,2.4132000000000002,False,6.2211048784170995,8.580683910151834,24.70919605
Tl2SnS3,3,top-down,Pmma,mmm,orthorhombic,1.3332,False,3.84228131,7.39018679,30.077709
Nb2Te4Cl10O,4,top-down,P-1,-1,triclinic,1.2577999999999996,True,8.498758481780039,11.180726466830345,24.808527
Mn3SbO8,3,top-down,C2/m,2/m,monoclinic,0.0,False,6.0282313764238875,6.028231786844135,21.996277
CdBiS2Cl,4,top-down,Pmc2_1,mm2,orthorhombic,1.1814999999999998,True,3.83905626,11.47826208,25.697285
InSb2Se4Br,4,top-down,P2_1/m,2/m,monoclinic,1.1778999999999997,False,4.0464292106048445,18.03794901102355,24.81305166303381
Ti2ZnO5,3,top-down,Pmmn,mmm,orthorhombic,3.156,False,3.65590089,11.97989914,26.991729
LiCu2F5,3,top-down,P2_1/m,2/m,monoclinic,0.5163000000000002,False,3.14119567,9.64231568,26.239042
AuCClO,4,top-down,Pmmn,mmm,orthorhombic,2.5046,False,4.12278593,5.09103428,26.584543
Sc2Te5O13,3,top-down,P1,1,triclinic,3.1392,False,6.601815497413242,8.732707503415437,24.847700280082194
Y7C3I6O,4,top-down,Pmma,mmm,orthorhombic,0.0,False,3.8533518,22.48684005,28.43474905