Formula,No. of Elements,Discovery Process,Space Group,Point Group,Crystal System,Band Gap,Is Gap Direct?,a,b,c
CaN,2,bottom-up,Pmm2,mm2,orthorhombic,0.0,False,3.35203545,3.54212081,27.11141
SiP2,2,bottom-up,P-42_1m,-42m,tetragonal,1.9101999999999997,False,4.8504049,4.8504049,21.526957
ZnSe,2,bottom-up,P3m1,3m,trigonal,1.8295,True,4.09214168,4.0921414628310275,20.16693
BaN,2,bottom-up,Pmm2,mm2,orthorhombic,0.0,False,3.88810635,3.88190588,27.11141
NdC5,2,bottom-up,Pmmm,mmm,orthorhombic,0.0,False,3.17113064,4.98514872,23.414028
SnS,2,bottom-up,Pmna,mmm,orthorhombic,0.12359999999999971,True,4.88031475,7.45356291,24.071701
KN3,2,bottom-up,P2/m,2/m,monoclinic,0.3625999999999998,False,5.53036874570246,7.000313881361167,20.0
SiTe,2,bottom-up,Pmna,mmm,orthorhombic,0.09489999999999998,True,4.0780957,7.62725786,24.071701
TbSi5,2,bottom-up,Pmmm,mmm,orthorhombic,0.0,False,3.31691877,6.28635987,23.326436
P2Pd,2,bottom-up,P31m,3m,trigonal,0.00649999999999995,False,6.17544728,6.172557861769099,23.849595
SmSn5,2,bottom-up,Pmmm,mmm,orthorhombic,0.0,False,4.13268851,6.88625309,23.377978
BaCe,2,bottom-up,Pmmn,mmm,orthorhombic,0.0,False,3.52694563,4.22923999,25.269087
Tl3Os2,2,bottom-up,P4/mmm,4/mmm,tetragonal,0.0,False,3.34349632,3.34349632,25.544133
NaBi3,2,bottom-up,P2/m,2/m,monoclinic,0.0,False,6.438898610039315,8.734271031855394,20.0
RbSn2,2,bottom-up,P4mm,4mm,tetragonal,0.0,False,3.17206675,3.17206675,24.320905
Ba3Si,2,bottom-up,P4mm,4mm,tetragonal,0.11870000000000003,False,5.11286977,5.11608419,22.353476
U2Te,2,bottom-up,P2/c,2/m,monoclinic,0.0,False,6.873278420154171,7.219207101175456,20.206464
AsS,2,bottom-up,P4/nmm,4/mmm,tetragonal,0.0,False,4.7745211,4.7745211,21.297207
YbF3,2,bottom-up,Pmmn,mmm,orthorhombic,0.0,False,3.41306462,6.41970729,23.788895
YC5,2,bottom-up,Pmmm,mmm,orthorhombic,0.0,False,3.05369869,4.80058715,23.460598
CdP,2,bottom-up,P-6m2,-6m2,hexagonal,0.0,False,4.353438043140663,4.353438136606648,20.274504
BeSi2,2,bottom-up,C2/m,2/m,monoclinic,0.0,False,2.425635,5.3461973917452665,23.148083
TbN2,2,bottom-up,C222,222,orthorhombic,0.0,False,3.66464381,3.8714820161099746,24.923409
OsSe,2,bottom-up,Cmme,mmm,orthorhombic,0.0,False,3.6014983185803553,3.6014985386799543,23.66238
Sr2C,2,bottom-up,P4/nmm,4/mmm,tetragonal,0.0,False,7.057650004401416,7.059196181663443,28.824571
CoBr3,2,bottom-up,P-31m,-3m,trigonal,0.9111000000000002,False,6.132633855194739,6.132633977471806,22.978663
Ca3Si,2,bottom-up,P4mm,4mm,tetragonal,0.13150000000000006,False,4.75392717,4.75928281,22.353476
SrGe2,2,bottom-up,C2/m,2/m,monoclinic,0.16380000000000017,True,6.30965385,5.287909279027957,23.148083
ScAs2,2,bottom-up,C222,222,orthorhombic,0.0,False,3.03579094,3.2796643576319244,24.904261
HoS3,2,bottom-up,Pmma,mmm,orthorhombic,0.0,False,3.56748345,3.58549709,30.431429
Ge2O,2,bottom-up,Cm,m,monoclinic,0.0,False,2.9581666200000023,3.0568906439964834,22.806944
AlPt2,2,bottom-up,P-6m2,-6m2,hexagonal,0.0,False,2.907802979005318,2.9078035620391245,22.780419
DySe3,2,bottom-up,Pmma,mmm,orthorhombic,0.0,False,3.81917607,3.84283009,30.585538
Sb2Pd,2,bottom-up,P31m,3m,trigonal,0.0,False,6.47054894,6.471144941640033,23.849595
In3Ru2,2,bottom-up,P4/mmm,4/mmm,tetragonal,0.0,False,3.24578329,3.24578329,25.544133
AsSe,2,bottom-up,P-1,-1,triclinic,0.0,False,4.079464154734654,4.46286269437494,22.849215
HgP,2,bottom-up,P-6m2,-6m2,hexagonal,0.0,False,4.306967773972788,4.30696786017258,20.274504
SrCa,2,bottom-up,P-3m1,-3m,trigonal,0.0675,False,4.08735,4.087350057020563,28.784137
BaCa,2,bottom-up,P3m1,3m,trigonal,0.0,False,4.10397089,4.103971322996617,34.509042
InPd2,2,bottom-up,P-6m2,-6m2,hexagonal,0.0,False,3.0682213243233347,3.068221961905914,22.780419
MgGe2,2,bottom-up,C2/m,2/m,monoclinic,0.0,False,5.10430018,4.66382216332283,23.148083
LiAs3,2,bottom-up,P-6m2,-6m2,hexagonal,0.0,False,4.46393907,4.463939803801418,22.300729
RhI3,2,bottom-up,P-31m,-3m,trigonal,1.2315,False,6.836674253402314,6.836674438414119,22.978663
Mg2C,2,bottom-up,P4/nmm,4/mmm,tetragonal,0.11580000000000013,False,5.839133367676163,5.841180052461076,28.824571
AsS,2,bottom-up,P2_1/c,2/m,monoclinic,1.1979000000000002,True,6.50264202,6.95118924,22.0755
TlNi2,2,bottom-up,P-6m2,-6m2,hexagonal,0.0,False,2.975864105658892,2.975864740313772,22.780419
Ba2Ce,2,bottom-up,Pmma,mmm,orthorhombic,0.0,False,3.73233595,4.38796375,27.931777
ScPb5,2,bottom-up,Pmmm,mmm,orthorhombic,0.0,False,3.79959672,7.68765437,23.460598
BeSb2,2,bottom-up,C2/m,2/m,monoclinic,0.0,False,3.18278091,7.721544186900833,24.980012
NaPb2,2,bottom-up,P4mm,4mm,tetragonal,0.0,False,3.15234175,3.15234175,24.320905
K2I,2,bottom-up,Pmma,mmm,orthorhombic,0.035699999999999954,False,5.13727785,8.79900648,23.993148
SrBe,2,bottom-up,P3m1,3m,trigonal,0.0,False,4.01867717,4.018677528584921,34.509042
ScSi5,2,bottom-up,Pmmm,mmm,orthorhombic,0.0,False,3.04010698,5.85094443,23.460598
As2Au,2,bottom-up,P2/m,2/m,monoclinic,0.0,False,2.75551024,5.65049646,20.816747
B2Te3,2,bottom-up,P-3m1,-3m,trigonal,0.0,False,3.55279908,3.552798631553018,26.456756
Tl3Fe2,2,bottom-up,P4/mmm,4/mmm,tetragonal,0.0,False,3.48789542,3.48789542,25.544133
PaAs2,2,bottom-up,P4/mmm,4/mmm,tetragonal,0.0,False,5.41655804,5.41655804,22.513147
Mg3Si,2,bottom-up,P4mm,4mm,tetragonal,0.0,False,4.09286727,4.09575161,22.353476
ErAs2,2,bottom-up,C222,222,orthorhombic,0.0,False,3.1720587,3.453382220184609,24.897091
HgBi,2,bottom-up,P3m1,3m,trigonal,0.0,False,4.96280448936693,4.962804632488047,20.274504
SiTe2,2,bottom-up,P-4m2,-42m,tetragonal,0.28059999999999996,False,3.9413496,3.9413496,22.855457
OsS,2,bottom-up,Cmme,mmm,orthorhombic,0.0,False,3.6898473702444994,3.689847605345894,23.66238
KCl,2,bottom-up,P4/mmm,4/mmm,tetragonal,4.8076,True,4.31355956,4.31355956,20.0
Si3Sb,2,bottom-up,P2_1/m,2/m,monoclinic,0.0,False,5.52839904,10.52105803,20.014903
NiCl2,2,bottom-up,Pmna,mmm,orthorhombic,0.2427999999999999,False,3.75929409,6.10830457,22.605336
KI,2,bottom-up,P4/mmm,4/mmm,tetragonal,4.0528,True,4.85191966,4.85191966,20.0
GdC2,2,bottom-up,P4/mmm,4/mmm,tetragonal,0.0,False,3.54248333,3.54248333,22.570903
MgP2,2,bottom-up,C2/m,2/m,monoclinic,0.0,False,2.8959070400000004,5.786644059002231,24.980012
Ca3Ge,2,bottom-up,P4mm,4mm,tetragonal,0.13759999999999994,False,4.78081139,4.78501244,22.353476
SrCa,2,bottom-up,P3m1,3m,trigonal,0.029000000000000005,False,4.07888657,4.07888700157344,34.509042
UGe2,2,bottom-up,C2/m,2/m,monoclinic,0.0,False,3.664054414133736,5.236677989072016,26.177714
SnTe,2,bottom-up,Pmna,mmm,orthorhombic,0.13340000000000019,True,4.87571672,8.33845049,24.071701
BiTe,2,bottom-up,C2/m,2/m,monoclinic,0.0,False,4.49271347575202,4.4927133687343686,23.436881
HoSe3,2,bottom-up,Pmma,mmm,orthorhombic,0.0,False,3.81088269,3.83737699,30.431429
CdAs,2,bottom-up,P-6m2,-6m2,hexagonal,0.0,False,4.52090861994725,4.520908725505749,20.274504
Te2Pb,2,bottom-up,P-4m2,-42m,tetragonal,0.0,False,4.34522568,4.34522568,22.855457
Te4Os3,2,bottom-up,P-6m2,-6m2,hexagonal,0.0,False,3.55110009,3.551100326914714,29.348926
NaBr,2,bottom-up,P4/mmm,4/mmm,tetragonal,4.3939,False,4.06048831,4.06048831,20.0
In3Fe2,2,bottom-up,P4/mmm,4/mmm,tetragonal,0.0,False,3.19103246,3.19103246,25.544133
CaCe,2,bottom-up,Pmmn,mmm,orthorhombic,0.0,False,3.30540102,4.24878734,25.269087
AsSe,2,bottom-up,P4/nmm,4/mmm,tetragonal,0.0,False,4.95427463,4.95427463,21.297207
RbI,2,bottom-up,P4/mmm,4/mmm,tetragonal,3.934,True,5.06196213,5.06196213,20.0
PdF2,2,bottom-up,Pmna,mmm,orthorhombic,0.8389999999999995,False,3.7509148,5.68761236,22.605336
K2Br,2,bottom-up,Pmma,mmm,orthorhombic,0.0,False,4.72352692,8.54190085,23.993148
Ce2Mg,2,bottom-up,P-3m1,-3m,trigonal,0.0,False,3.15106074,3.1510615654900813,34.624661
YTe3,2,bottom-up,P4mm,4mm,tetragonal,0.0,False,4.22657488,4.22247917,24.44792
Ca3C,2,bottom-up,P4mm,4mm,tetragonal,0.0,False,4.38348492,4.37785145,22.353476
Tl2Te3,2,bottom-up,P-3m1,-3m,trigonal,0.0,False,4.321712,4.3217130370743035,26.980377
Si3P,2,bottom-up,P2_1/m,2/m,monoclinic,0.08000000000000007,False,5.09933011,10.41867879,20.014903
YSn5,2,bottom-up,Pmmm,mmm,orthorhombic,0.0,False,3.29669566,6.26237983,23.460598
TmAs2,2,bottom-up,C222,222,orthorhombic,0.0,False,3.16046615,3.4258065543245078,24.898708
Ca3Pb,2,bottom-up,P4mm,4mm,tetragonal,0.29690000000000005,False,4.97248298,4.97049011,22.353476
BaCa,2,bottom-up,P-3m1,-3m,trigonal,0.0,False,4.14031436,4.1403138963183075,28.784137
YbBr3,2,bottom-up,C2/m,2/m,monoclinic,0.5145999999999997,False,6.68085189,7.33784100642798,22.454131
NaBi3,2,bottom-up,P-6m2,-6m2,hexagonal,0.0,False,5.31749911,5.317500226328961,22.300729
Rb2Cl,2,bottom-up,Pmma,mmm,orthorhombic,0.0,False,4.78618694,8.72409557,23.993148
Al2S3,2,bottom-up,P-3m1,-3m,trigonal,1.5649999999999997,False,3.50403894,3.504038526135218,26.456756
SbSe,2,bottom-up,P-1,-1,triclinic,0.0,False,4.275826470405877,4.800991920263502,22.849215
TeN,2,bottom-up,C2/m,2/m,monoclinic,0.0,False,3.435304179784692,3.435304146780948,23.436881
Tl2S3,2,bottom-up,P-3m1,-3m,trigonal,0.4496000000000002,False,3.9515174400000004,3.9515175787168153,26.980377
SbS,2,bottom-up,P2_1/c,2/m,monoclinic,0.9122000000000001,True,7.02630725,7.45988149,22.0755
InPt2,2,bottom-up,P-6m2,-6m2,hexagonal,0.0,False,2.9977230551248786,2.99772363349276,22.780419
LiBr,2,bottom-up,P4/mmm,4/mmm,tetragonal,4.665100000000001,False,3.67704182,3.67704182,20.0
Sr3C,2,bottom-up,P4mm,4mm,tetragonal,0.0,False,4.69426406,4.69459112,22.353476
RuSe,2,bottom-up,Cmme,mmm,orthorhombic,0.0,False,3.7468789956422026,3.7468792361251966,23.66238
NiBi2,2,bottom-up,P31m,3m,trigonal,0.0,False,6.36315314,6.362889833880497,23.849595
MgAs,2,bottom-up,Pmm2,mm2,orthorhombic,0.0,False,3.28147957,4.82528117,27.11141
SiSe2,2,bottom-up,P-4m2,-42m,tetragonal,1.1209999999999998,False,3.5875032,3.5875032,22.855457
AlPd2,2,bottom-up,P-6m2,-6m2,hexagonal,0.0,False,2.9260939746831722,2.9260945851311915,22.780419
GaPd2,2,bottom-up,P-6m2,-6m2,hexagonal,0.0,False,2.943360588417378,2.9433611798351875,22.780419
InNi2,2,bottom-up,P-6m2,-6m2,hexagonal,0.0,False,2.895628258116819,2.895628807019265,22.780419
DyS3,2,bottom-up,Pmma,mmm,orthorhombic,0.0,False,3.57495139,3.59110459,30.585538
PaBi2,2,bottom-up,P4/mmm,4/mmm,tetragonal,0.0,False,5.81546603,5.81546603,22.513147
LaSe3,2,bottom-up,P4mm,4mm,tetragonal,0.0,False,3.89348546,3.89153899,24.44792
GeTe,2,bottom-up,Pmna,mmm,orthorhombic,0.2966,True,4.32509215,7.86087011,24.071701
Ru3S4,2,bottom-up,P-6m2,-6m2,hexagonal,0.0,False,3.15724394,3.1572441236108353,29.348926
KSn2,2,bottom-up,P4mm,4mm,tetragonal,0.0,False,3.15096225,3.15096225,24.320905
MnN2,2,bottom-up,P-6m2,-6m2,hexagonal,0.0,False,2.747940306220098,2.747940392095266,26.361247
Al3Fe2,2,bottom-up,P4/mmm,4/mmm,tetragonal,0.0,False,2.89368778,2.89368778,25.544133
NiAs2,2,bottom-up,P31m,3m,trigonal,0.19210000000000016,False,5.8164381800000005,5.816578991464362,23.849595
ZnSb,2,bottom-up,P3m1,3m,trigonal,0.0,False,4.470391401165723,4.470391495304667,20.274504
Rb2I,2,bottom-up,Pmma,mmm,orthorhombic,0.0015000000000000568,False,5.465577,9.21309647,23.993148
Pb2O,2,bottom-up,Cm,m,monoclinic,0.061799999999999855,False,3.4631125400000027,3.4556212473277155,22.806944
CdSb,2,bottom-up,P3m1,3m,trigonal,0.0,False,4.802456740537872,4.802456870351613,20.274504
U2Se,2,bottom-up,P2/c,2/m,monoclinic,0.0,False,6.466334585148367,7.011187424778148,20.206464
Be3C,2,bottom-up,P4mm,4mm,tetragonal,1.0352999999999999,False,2.84654202,2.84697393,22.353476
TbSi2,2,bottom-up,P4/mmm,4/mmm,tetragonal,0.0,False,3.86546581,3.86546581,22.621078
BeBi2,2,bottom-up,C2/m,2/m,monoclinic,0.0,False,3.69515115,6.560570268745283,24.980012
BaAs,2,bottom-up,Pmm2,mm2,orthorhombic,0.0,False,5.32711189,4.33350141,27.11141
NpS3,2,bottom-up,Pmma,mmm,orthorhombic,0.0,False,3.55302429,3.5789733,30.582361
HgTe,2,bottom-up,P3m1,3m,trigonal,0.005999999999999783,True,4.73408437,4.734084031413861,20.16693
Bi2W3,2,bottom-up,Cm,m,monoclinic,0.0,False,4.407749932220445,4.410683413119255,22.034252
SO2,2,bottom-up,Pmmn,mmm,orthorhombic,0.0,False,2.58796501,3.09149622,24.161191
KSb3,2,bottom-up,P2/m,2/m,monoclinic,0.0,False,7.2116398005256395,8.268130072132427,20.0
TcN2,2,bottom-up,P-6m2,-6m2,hexagonal,0.0,False,2.869274234728237,2.8692743316934446,26.361247
TeN,2,bottom-up,P2_1/m,2/m,monoclinic,0.0,False,3.1824394021385145,3.820139864370881,22.849215
SnSe2,2,bottom-up,P-4m2,-42m,tetragonal,0.8907000000000003,False,3.92924544,3.92924544,22.855457
YPb5,2,bottom-up,Pmmm,mmm,orthorhombic,0.0,False,4.30788935,7.0038208,23.460598
Mo3P2,2,bottom-up,C2/m,2/m,monoclinic,0.0,False,4.985037037540607,3.3234235397843443,22.034252
PtN2,2,bottom-up,Pmmm,mmm,orthorhombic,0.0,False,2.77214649,4.921159,20.0
Li2Br,2,bottom-up,Pmma,mmm,orthorhombic,0.0,False,3.67009978,6.22104402,23.993148
SrC2,2,bottom-up,Cmme,mmm,orthorhombic,0.0,False,4.52353206,4.686904481813441,23.148083
SiSe,2,bottom-up,Pmna,mmm,orthorhombic,0.3771000000000002,True,3.99947347,7.04765371,24.071701
BaSb,2,bottom-up,Pmm2,mm2,orthorhombic,0.0,False,5.88381536,4.59895936,27.11141
LiI,2,bottom-up,P4/mmm,4/mmm,tetragonal,4.0778,False,4.02917319,4.02917319,20.0
Mg3Ge,2,bottom-up,P4mm,4mm,tetragonal,0.0,False,4.08993229,4.08846912,22.353476
TeN,2,bottom-up,P4/nmm,4/mmm,tetragonal,0.0,False,4.20563889,4.20563889,21.297207
MgP,2,bottom-up,Pmm2,mm2,orthorhombic,0.0,False,4.545722,3.615233,27.11141
BaMg,2,bottom-up,P-3m1,-3m,trigonal,0.0,False,4.11495366,4.114953196714736,28.784137
SrP2,2,bottom-up,C2/m,2/m,monoclinic,0.0,False,4.4537587,7.454334100217476,24.980012
YSi5,2,bottom-up,Pmmm,mmm,orthorhombic,0.0,False,3.32267006,6.24436881,23.460598
Mg3Pb,2,bottom-up,Pmm2,mm2,orthorhombic,0.0,False,4.37521174,4.25616928,22.353476
PtBr2,2,bottom-up,Pmna,mmm,orthorhombic,0.9190999999999998,False,4.08241555,6.84492772,22.605336
TeAs,2,bottom-up,P2_1/c,2/m,monoclinic,0.9429999999999998,True,7.3765048,7.23136975,22.0755
PS,2,bottom-up,P2_1/c,2/m,monoclinic,1.9204999999999999,True,6.16381191,6.65548713,22.0755
PtCl2,2,bottom-up,Pmna,mmm,orthorhombic,1.1723999999999997,False,4.02199739,6.45246879,22.605336
Bi2Mo3,2,bottom-up,Cm,m,monoclinic,0.0,False,4.3577144716446075,4.850464859958309,22.034252
LiSb3,2,bottom-up,P-6m2,-6m2,hexagonal,0.0,False,4.93685511,4.936856056413143,22.300729
BaSr,2,bottom-up,P-3m1,-3m,trigonal,0.0,False,4.31332183,4.313321316997101,28.784137
AgBi2,2,bottom-up,Pmmm,mmm,orthorhombic,0.0,False,3.29633906,4.73967665,20.816747
TbBi2,2,bottom-up,C222,222,orthorhombic,0.0,False,3.45203909,3.5615600495882243,24.923409
LaAs2,2,bottom-up,C222,222,orthorhombic,0.0,False,3.19580271,3.3007680995758775,24.904261
LiC2,2,bottom-up,P4/nmm,4/mmm,tetragonal,0.0,False,3.33532939,3.33532939,24.906801
LiP3,2,bottom-up,P2/m,2/m,monoclinic,1.4646999999999997,True,5.5516603862159934,7.551285960714583,20.0
K2Cl,2,bottom-up,Pmma,mmm,orthorhombic,0.0,False,4.50960729,8.31553146,23.993148
Cr3As2,2,bottom-up,C2/m,2/m,monoclinic,0.0,False,4.339653771368138,3.0141296166429985,22.034252
LaI,2,bottom-up,P-3m1,-3m,trigonal,0.0,False,4.12455057,4.124550744800602,27.090311
SrP,2,bottom-up,Pmm2,mm2,orthorhombic,0.0,False,4.98954625,3.97782428,27.11141
ErBi2,2,bottom-up,C222,222,orthorhombic,0.0,False,3.42116155,3.539454653896723,24.897091
PbS2,2,bottom-up,P-4m2,-42m,tetragonal,0.6848999999999998,False,3.89951001,3.89951001,22.855457
CdBi,2,bottom-up,P3m1,3m,trigonal,0.0,False,4.961284141773271,4.961284281267636,20.274504
KF,2,bottom-up,P4/mmm,4/mmm,tetragonal,4.8533,True,3.64459103,3.64459103,20.0
PSe,2,bottom-up,P2_1/c,2/m,monoclinic,1.5177,True,6.58071412,6.6568306,22.0755
RbC12,2,bottom-up,P6/mmm,6/mmm,hexagonal,0.0,False,4.28894951,4.288950111523552,23.785746
MgU,2,bottom-up,P3m1,3m,trigonal,0.0,False,2.92741494,2.9274151344589936,23.108247
Ca5Ce,2,bottom-up,Cm,m,monoclinic,0.0,False,3.77965803,7.390253769085055,25.53339
Rb2Br,2,bottom-up,Pmma,mmm,orthorhombic,0.0,False,5.06128258,8.94549754,23.993148
DyP2,2,bottom-up,C222,222,orthorhombic,0.0,False,3.1148068400000004,3.4466485122873936,24.915313
Al2Se3,2,bottom-up,P-3m1,-3m,trigonal,0.7675999999999998,False,3.697865,3.6978638581970533,26.456756
LiCl,2,bottom-up,P4/mmm,4/mmm,tetragonal,5.3340000000000005,False,3.43269921,3.43269921,20.0
YbP2,2,bottom-up,Pmm2,mm2,orthorhombic,0.0015999999999998238,True,3.4257314,4.76005571,22.994808
SeN,2,bottom-up,C2/m,2/m,monoclinic,0.0,False,3.2126004909810315,3.212600463424767,23.436881
MgBe,2,bottom-up,P-3m1,-3m,trigonal,0.0,False,2.87385455,2.873854485745466,28.784137
PtF2,2,bottom-up,Pmna,mmm,orthorhombic,1.1906000000000003,True,3.88225727,5.61137011,22.605336
Ba2Ce,2,bottom-up,C2/m,2/m,monoclinic,0.0,False,4.18729799,7.015212219544479,26.048837
EuSn3,2,bottom-up,P6/mmm,6/mmm,hexagonal,0.38259999999999983,False,6.35892924,6.358305622956123,20.0
Mg2Pb,2,bottom-up,P-1,-1,triclinic,0.0,False,6.307086831496505,6.041333826052257,28.824571
DyBi2,2,bottom-up,C222,222,orthorhombic,0.0,False,3.44444796,3.553915687491978,24.915313
EuSe,2,bottom-up,P4/mmm,4/mmm,tetragonal,0.0,False,4.260566221432878,4.260566319913005,25.905649
NiN2,2,bottom-up,Pmmm,mmm,orthorhombic,0.0,False,2.83277861,4.63623575,20.0
ScBi2,2,bottom-up,C222,222,orthorhombic,0.0,False,3.4091839,3.4757650876891186,24.904261
Ca2Ge,2,bottom-up,Pbcm,mmm,orthorhombic,0.043400000000000105,True,8.132345693347832,8.114160297152749,28.824571
Ca2Ce,2,bottom-up,Pmma,mmm,orthorhombic,0.0,False,3.57297439,5.86514079,27.931777
Na2Br,2,bottom-up,Pmma,mmm,orthorhombic,0.0,False,4.17333611,7.31262031,23.993148
TmSe3,2,bottom-up,Pmma,mmm,orthorhombic,0.0,False,3.81414953,3.84373133,30.381957
TmP2,2,bottom-up,C222,222,orthorhombic,0.0,False,3.08166998,3.3951393371224174,24.898708
As2Pt,2,bottom-up,P31m,3m,trigonal,0.0,False,6.15030475,6.150469322276686,23.849595
CeBe2,2,bottom-up,C2/m,2/m,monoclinic,0.0,False,2.84445562,5.341210164189179,26.048837
CdO,2,bottom-up,P-6m2,-6m2,hexagonal,0.8237999999999999,True,3.66747824,3.667477977016976,20.634921
LiBi3,2,bottom-up,P-6m2,-6m2,hexagonal,0.0,False,5.09801855,5.098019571583036,22.300729
BaBi2,2,bottom-up,C2/m,2/m,monoclinic,0.0,False,3.62315312,8.259917921518943,24.980012
LaBi2,2,bottom-up,C222,222,orthorhombic,0.0,False,3.45263024,3.5477080722188568,24.904261
BaBi,2,bottom-up,Pmm2,mm2,orthorhombic,0.0,False,6.44677638,4.82575449,27.11141
TlPd2,2,bottom-up,P-6m2,-6m2,hexagonal,0.0,False,3.1222298465733287,3.1222305225639277,22.780419
Ca2C,2,bottom-up,P4/nmm,4/mmm,tetragonal,0.01540000000000008,False,6.711955150643113,6.73498589237831,28.824571
BeBi,2,bottom-up,Pmm2,mm2,orthorhombic,0.0,False,3.39331835,3.45020505,27.11141
Ba2C,2,bottom-up,Pmmn,mmm,orthorhombic,0.0,False,7.4600977099327155,7.458966994905221,28.824571
TbPb5,2,bottom-up,Pmmm,mmm,orthorhombic,0.0,False,4.24711362,7.18710711,23.326436
Bi2C,2,bottom-up,P-42_1m,-42m,tetragonal,0.6063999999999999,False,4.977099460006112,4.977086670006128,25.832348
Rb2F,2,bottom-up,Pmma,mmm,orthorhombic,0.0,False,4.05593708,7.96736182,23.993148
SrBe,2,bottom-up,P-3m1,-3m,trigonal,0.0,False,3.98521171,3.9852113261723727,28.784137
TeAs,2,bottom-up,C2/m,2/m,monoclinic,0.0,False,4.2348352593746785,4.234835164315261,23.436881
B3Os2,2,bottom-up,P4/mmm,4/mmm,tetragonal,0.0,False,2.8365963,2.8365963,25.544133
KBr,2,bottom-up,P4/mmm,4/mmm,tetragonal,4.407100000000001,True,4.52517236,4.52517236,20.0
GeS,2,bottom-up,Pmna,mmm,orthorhombic,0.0671999999999997,True,4.21723601,6.89841876,24.071701
Be3Ge,2,bottom-up,Pmm2,mm2,orthorhombic,0.0,False,2.42634741,3.61236613,22.353476
BaP,2,bottom-up,Pmm2,mm2,orthorhombic,0.0,False,5.22822223,4.13574014,27.11141
BPd2,2,bottom-up,P-6m2,-6m2,hexagonal,0.0,False,2.8431755488910304,2.8431761519978203,22.780419
CaBe,2,bottom-up,P-3m1,-3m,trigonal,0.0,False,3.50553209,3.5055318121489116,28.784137
Ba3Ge,2,bottom-up,P4mm,4mm,tetragonal,0.06610000000000005,False,5.12636157,5.13323941,22.353476
SmSi5,2,bottom-up,Pmmm,mmm,orthorhombic,0.0,False,3.34844677,6.39123287,23.377978
SiS2,2,bottom-up,P-4m2,-42m,tetragonal,1.7080999999999997,False,3.37621249,3.37621249,22.855457
ScGe5,2,bottom-up,Pmmm,mmm,orthorhombic,0.0,False,3.22520113,6.0339388,23.460598
SeO2,2,bottom-up,P4/nmm,4/mmm,tetragonal,1.3664,False,3.20325178,3.20908181,24.161191