Formula,No. of Elements,Discovery Process,Space Group,Point Group,Crystal System,Band Gap,Is Gap Direct?,a,b,c
Sr2Cu2O3,3,top-down,Cmmm,mmm,orthorhombic,0.0,False,4.177967426112001,11.532706323754063,23.193445
WF4,2,top-down,P2_1/c,2/m,monoclinic,3.3650999999999995,False,5.070875900028536,5.828619754684986,22.274901963154775
CrS2,2,top-down,P-3m1,-3m,trigonal,0.0,False,3.3103967794271223,3.310397140212443,22.737146
B2(CN2)3,3,top-down,P321,32,trigonal,2.6229,True,8.30124669798947,8.298398615997154,20.997538
SmBrO,3,top-down,P4/nmm,4/mmm,tetragonal,4.6918,True,3.9294773,3.9294773,25.72584628
AuO2F,3,top-down,P222_1,222,orthorhombic,1.3326000000000002,False,3.83615569,6.96619785,22.082157
Ca3Pb3I14,3,top-down,Pm,m,monoclinic,0.0,False,4.41834684,25.889954437098943,24.433247572038827
MnOF,3,top-down,Pmmn,mmm,orthorhombic,0.0,False,3.1879258,3.75824741,24.341706
Zn(AsO2)2,3,top-down,P2_1,2,monoclinic,3.5759,False,4.58422153,5.04433462,25.98744
SnSe,2,top-down,Pmmn,mmm,orthorhombic,1.588,False,3.87176423,6.14017948,21.993132
Na2Hf(HO)6,4,top-down,P-31m,-3m,trigonal,3.6071,False,5.99601102,5.996011326725474,24.240089
Hg3(BO3)2,3,top-down,P321,32,trigonal,3.4067000000000003,False,8.90489423,8.904894191825411,20.709024
BaTi4O8,3,top-down,P-31m,-3m,trigonal,0.0,False,5.71585909,5.715859463015371,24.406824
CdBiS2Br,4,top-down,P2/m,2/m,monoclinic,0.8492000000000002,True,3.90072744,11.19528331,25.746273
RbV4O10,3,top-down,Cmmm,mmm,orthorhombic,0.0,False,3.67712892,6.026698753570182,27.908324
Li2MnP2O7,4,top-down,P-42_1m,-42m,tetragonal,4.2136000000000005,True,7.82893278,7.82893278,22.25249221
PrIO,3,top-down,P4/nmm,4/mmm,tetragonal,3.7956000000000003,False,4.11025215,4.11025215,26.208859
AgClO2,3,top-down,Cmme,mmm,orthorhombic,1.2302,True,4.526385298247558,4.526385397221559,24.650738757257578
MnCSO7,4,top-down,P2_1/m,2/m,monoclinic,0.0026000000000001577,False,5.06484097,6.20703825,30.100149
LuIO,3,top-down,P4/nmm,4/mmm,tetragonal,3.3049,False,3.83558319,3.83558319,25.963298
LiB(HO2)2,4,top-down,P2_1/c,2/m,monoclinic,3.5957999999999997,True,5.03206657,7.82942505,25.532351
Nb2Te3,2,top-down,P2_1/m,2/m,monoclinic,0.0,False,3.5972807301815397,10.398189675616687,24.102073
V2S5,2,top-down,Pmmn,mmm,orthorhombic,0.5320999999999998,False,4.300349550408878,13.850987009433213,25.401168344128205
Ni(PS3)2,3,top-down,P312,32,trigonal,0.4575,False,5.758074514025218,5.758074104522077,23.135275
Bi14Te13S8,3,top-down,P-3,-3,trigonal,0.8720000000000001,False,11.26928477,11.269284998301446,27.278418
KV3(SeO6)2,4,top-down,P3,3,trigonal,2.3827000000000003,False,7.150063610000001,7.150063716361141,25.244914
FeHO2,3,top-down,P3m1,3m,trigonal,1.9285999999999999,False,3.09726392,3.097263957286747,23.052447
Bi2Te2Se,3,top-down,P-3m1,-3m,trigonal,0.8830000000000001,False,4.33433538,4.334336099730728,27.38760583
YbBrO,3,top-down,P4/nmm,4/mmm,tetragonal,0.0,False,3.61904725,3.61904725,26.06661
As2S3,2,top-down,Pc,m,monoclinic,2.1307,False,4.40550660843317,11.413952086224379,22.84384214
SbN9,2,top-down,P-3,-3,trigonal,2.7253000000000003,True,6.98383291,6.983832894950296,24.954535
LuH2ClO2,4,top-down,P2_1/m,2/m,monoclinic,4.2684,True,3.46279713,6.15919698,25.356487
LiSnCl3,3,top-down,P3,3,trigonal,4.401,True,6.5670734600000005,6.56707299400589,17.76344426
SrTa2H2O7,4,top-down,P4/mmm,4/mmm,tetragonal,2.2241,False,3.96449317,3.96449317,29.870796
Fe(Si2O3)2,3,top-down,P1,1,triclinic,0.0,False,2.8657088156349677,6.328605682741078,28.248593
V3O7,2,top-down,Pmn2_1,mm2,orthorhombic,1.3243,False,5.34966833,10.69944824,24.157802
W(OF)2,3,top-down,Amm2,mm2,orthorhombic,1.7269000000000005,False,3.8649236687989386,3.8649231402336124,23.767948
Bi2Te2WO10,4,top-down,P2/c,2/m,monoclinic,3.0403,False,5.59213142,12.45332223,25.507818
LiVCuO4,4,top-down,Pmma,mmm,orthorhombic,0.0,False,6.56216119,8.08054599,22.765887
LiVF3,3,top-down,Pmma,mmm,orthorhombic,2.1069,False,3.213030506743071,5.94017392,23.303970589870094
YMnF5,3,top-down,Pmmm,mmm,orthorhombic,0.3841999999999999,False,4.47044609,8.38315163,24.392684
CeBrO,3,top-down,P4/nmm,4/mmm,tetragonal,0.0,False,3.94659113,3.94659113,25.649321
CuO2,2,top-down,P-3m1,2/m,trigonal,0.0,False,2.9322590657096126,5.081241680059742,19.181254084923488
LiFePO4,4,top-down,Pmma,mmm,orthorhombic,2.9334,True,6.02285161,8.24085458,22.502361
Zn2Te3O8,3,top-down,C2,2,monoclinic,3.3445,True,5.13219965,7.0322968416185185,24.990787
Sr2Mn2GaO7,4,top-down,Pmc2_1,mm2,orthorhombic,0.0,False,5.277639740769606,5.401742628253496,28.767961
TlInS2,3,top-down,P2/m,2/m,monoclinic,0.0,False,6.122568088538235,6.150444311415014,20.0
MnS2,2,top-down,P-3m1,-3m,trigonal,0.0,False,3.34673186,3.3467318174869627,22.66818725
Ba2Co3O7,3,top-down,Pmmm,mmm,orthorhombic,0.0,False,3.727163690332642,3.759407126192071,29.710851
GdSI,3,top-down,Pmmn,mmm,orthorhombic,1.5882,False,4.2258285,5.34732734,26.809172
As3HO6,3,top-down,P2_1,2,monoclinic,3.8282999999999996,False,4.59483914,12.704979595720172,22.415497395825945
KBi(PSe3)2,4,top-down,P2_1/c,2/m,monoclinic,1.4313,False,7.68008748,12.18712216,30.412678
VO2,2,top-down,C2/m,-1,monoclinic,1.0526,False,5.231838138556734,5.870296949582348,21.631049078093113
Ta2TeO8,3,top-down,P2/c,2/m,monoclinic,0.09609999999999985,False,5.225234187824075,5.908990756219643,27.338901
YBrO,3,top-down,P4/nmm,4/mmm,tetragonal,4.6171999999999995,True,3.84294094,3.84294094,25.642222
C3N4,2,top-down,C2,2,monoclinic,2.2661,False,4.720130098813706,4.703699280401423,20.78465175273879
Ti3H2O7,3,top-down,Pm,m,monoclinic,2.5071,False,3.78322194,9.339006903484542,27.838818309513485
Bi2SeO5,3,top-down,Aem2,mm2,orthorhombic,3.0142,False,5.50059344,8.68253042138976,29.763915
Hg3Se4O5,3,top-down,P-1,-1,triclinic,2.2470999999999997,False,7.610129395339202,7.890396927953252,27.976851
Te2SO7,3,top-down,Pmn2_1,mm2,orthorhombic,3.2461999999999995,False,4.56208848,9.05777089,28.85277085
ZnP2(HO)4,4,top-down,Pmma,mmm,orthorhombic,4.6409,True,5.39064779,6.45230643,27.365469
LiVBO4,4,top-down,P2_1/m,2/m,monoclinic,1.2677999999999998,False,4.572681616699149,5.845685446985068,24.514415
CdCu2O3,3,top-down,Pmmn,mmm,orthorhombic,0.0,False,4.04311984,9.50390015,25.125643
FeBiSbS4,4,top-down,Pmc2_1,mm2,orthorhombic,0.0,False,3.52986205,11.16010887,28.8471
YTe3,2,top-down,P4/nmm,4/mmm,tetragonal,0.0,False,4.34459196,4.34638346,29.216576
NbFeTe2,3,top-down,Pmna,mmm,orthorhombic,0.0,False,6.34222339,7.97262279,24.715657
V2O5,2,top-down,Pmmn,mmm,orthorhombic,2.4589,False,3.61517623,11.4336844,24.289749
CuTe2Cl,3,top-down,P222_1,222,orthorhombic,0.7781000000000002,False,5.07971088,8.09154272,22.718205
SnPO3F,4,top-down,Pc,m,monoclinic,3.8544,True,4.645681066393366,5.96709571114169,24.07387402
AgI,2,top-down,P4/nmm,4/mmm,tetragonal,2.0797999999999996,True,4.37207095,4.37207095,23.624085
Ca2Cu(BrO)2,4,top-down,P4/mmm,4/mmm,tetragonal,0.0,False,3.85596615,3.85596615,26.029353
NiTeO4,3,top-down,P2/m,2/m,monoclinic,1.5140000000000002,True,3.094316,5.33281515,22.136626
V2H3O5,3,top-down,Cm,m,monoclinic,1.0363000000000002,False,3.07275279,6.375088437433651,24.101323
YbSi2Ni,3,top-down,P4/nmm,4/mmm,tetragonal,0.0,False,3.9750206,3.96974281,27.122332
InSb2S4Br,4,top-down,P2_1/m,2/m,monoclinic,1.4893999999999998,False,3.88904233,17.79864716,24.225047
Sn(PO3)2,3,top-down,Pc,m,monoclinic,4.8258,False,4.987776945955623,6.990996068233761,25.642864
Ba(FeO2)4,3,top-down,P-31m,-3m,trigonal,0.0,False,5.55637444,5.556373850340484,24.443971
AlTeCl7,3,top-down,P2_1,2,monoclinic,3.4005,False,6.4788874291467975,12.49740882,26.985197782863366
Cu3Se2(ClO3)2,4,top-down,C2/m,2/m,monoclinic,0.0,False,5.421463116614464,5.421462941220315,25.486558
LiNiPO4,4,top-down,Pmma,mmm,orthorhombic,2.7131999999999996,False,5.72347427,8.35028604,21.04729813
NbNiTe5,3,top-down,Pmma,mmm,orthorhombic,0.0,False,3.72997119,15.14849857,24.601564
LiVF5,3,top-down,P4/n,4/m,tetragonal,2.1782999999999992,False,6.71554519,6.71554519,22.2752043
Ca3Fe2Cl2O5,4,top-down,P4/mmm,4/mmm,tetragonal,0.7414999999999999,False,3.87897921,3.87897921,29.49702105
Mn2FeO6,3,top-down,C2/m,2/m,monoclinic,0.0,False,2.93282313,7.807219145571631,21.928122
SbO2,2,top-down,P-3m1,-3m,trigonal,0.0,False,3.41065078,3.410650434527567,21.903194
Zn(BH4)2,3,top-down,Pmc2_1,mm2,orthorhombic,4.522399999999999,False,4.26063516,8.10697777,25.788695
V(WO4)2,3,top-down,P-1,-1,triclinic,1.9240000000000004,False,4.879234400053832,5.231698599008376,25.38474
ZrSiSe,3,top-down,P4/nmm,4/mmm,tetragonal,0.0,False,3.56674339,3.56674339,27.12030035
AlHO2,3,top-down,P1,1,triclinic,2.7775,False,3.0637767580057123,3.6276116264441454,25.13518
BiBr3,2,top-down,P2_1/c,2/m,monoclinic,2.5211,False,8.02092991,9.84858697,24.383894
TeO3,2,top-down,P-6m2,-6m2,hexagonal,0.8623000000000003,False,3.75842469,3.7584245119980015,23.59166513
Si3Ir,2,top-down,P-6m2,-6m2,hexagonal,0.0,False,3.9208424900000005,3.9208427216409567,24.981653
Co3TeO8,3,top-down,P-3m1,-3m,trigonal,0.0,False,6.01828452,6.018284622604407,22.07267341
Ag2SO4,3,top-down,C222,222,orthorhombic,2.1495,False,4.94959204,6.290119166631036,21.762309
LiSO3F,4,top-down,C2/m,2/m,monoclinic,6.2646,True,5.678668812595646,5.678669122166357,25.881
HoH2ClO2,4,top-down,P2_1/m,2/m,monoclinic,4.420999999999999,True,3.54879021,6.20300845,25.459293
Ti(GaO2)4,3,top-down,C2/m,2/m,monoclinic,1.4095,True,3.08900008,5.970620866464409,27.278963
MnAs2F12,3,top-down,P-4,-4,tetragonal,4.2021,True,7.27357066,7.27357066,23.587066
Al(HO)3,3,top-down,P1,1,triclinic,4.412,False,5.143400343910456,8.674119500008318,23.929078710615368
Mg5Sc,2,top-down,Cm,m,monoclinic,0.0,False,3.08927806,6.015834098334558,25.900938190685814
Li2CuF5,3,top-down,P2/m,2/m,monoclinic,0.3677999999999999,False,2.8751832795538457,8.564288750332278,22.393047
Mg2Ni3O8,3,top-down,P2/m,2/m,monoclinic,0.9763999999999999,False,4.897867079837743,5.73887359,21.67419252406752
Ba2YI7,3,top-down,Pc,m,monoclinic,2.546,True,9.31550738084508,15.003737976085713,24.986156
BiMoO5,3,top-down,P2_1/c,2/m,monoclinic,0.0,False,9.14099929,11.26863147,23.687872
Sr2CrSO3,4,top-down,Pmmn,mmm,orthorhombic,0.0,False,4.0676486781779,3.8730830179156346,31.179681763399536
Li2Cr2O7,3,top-down,P-1,-1,triclinic,2.7032,False,7.336736324787081,10.57327443146738,22.110211501466658
VO2F,3,top-down,Pc,m,monoclinic,1.6715,True,4.95542413,5.147477260932347,22.598155513198233
TiGeTe6,3,top-down,P2_1/m,2/m,monoclinic,0.4124000000000001,False,3.9387465057632833,17.87342831393931,24.689584472536016
LiCu2(CO3)2,4,top-down,P1,1,triclinic,0.0,False,4.844248788353306,5.052310064969278,23.563065
NaHO,3,top-down,Pm,m,monoclinic,2.5953,True,3.29694424,3.50815712,23.48627
Ni(HO)2,3,top-down,P3m1,3m,trigonal,2.9434000000000005,False,3.37976276,3.3797627782518243,22.49539285
BiS,2,top-down,P2/c,2/m,monoclinic,0.0,False,5.751515648473623,17.896908978626577,23.120892
CuO,2,top-down,Pmc2_1,mm2,orthorhombic,0.22080000000000055,False,2.80957656,6.56856275,23.702859
Al(HO)3,3,top-down,P1,1,triclinic,4.4536999999999995,False,4.953843758323283,5.107489816804798,23.979321
SnGe,2,top-down,P3m1,3m,trigonal,0.21589999999999998,True,4.36080574,4.360804942837359,21.07776426
NbCoTe2,3,top-down,P2_1/c,2/m,monoclinic,0.0,False,6.36215863,7.7683958,24.681557
NaClO2,3,top-down,Cm,m,monoclinic,2.4375999999999998,True,6.4192648031097095,6.557034396827337,19.914916189883524
MoO2,2,top-down,P6/mmm,6/mmm,hexagonal,0.0,False,3.06822815,3.068228765207337,23.553972
Mg2As,2,top-down,Pmmn,mmm,orthorhombic,0.0,False,4.22280173,4.6257385,26.364527
ErClO,3,top-down,Pmmn,mmm,orthorhombic,5.2989999999999995,True,3.71925642,4.12641255,25.87925002
SiP2,2,top-down,Pmc2_1,mm2,orthorhombic,1.5367,False,3.46530004,10.24377864,25.607718
Hg3AsSe4I,4,top-down,P3m1,3m,trigonal,1.7854999999999999,True,7.75249918,7.7524987879520095,23.509906
Ag2Bi2S3Cl2,4,top-down,P-1,-1,triclinic,1.5629000000000002,False,7.23144985792126,11.269965447088172,28.786849
WO2,2,top-down,C2/m,2/m,monoclinic,1.9476,False,5.827387012211096,6.314525530857672,21.888907
Li2CeP2,3,top-down,P-3m1,-3m,trigonal,0.9071999999999999,True,4.09577268,4.095772732822118,24.93337095
NdIO,3,top-down,P4/nmm,4/mmm,tetragonal,3.7655000000000003,False,4.07448042,4.07448042,26.217684
SrTiSi2O7,4,top-down,Pmma,mmm,orthorhombic,3.6174,False,5.4809161,7.12513615,25.01257476
Co3NiO8,3,top-down,P-3m1,-3m,trigonal,1.3041,False,5.61010811,5.610108676858041,21.943771
Ba2TlNi2O7,4,top-down,P4/mmm,4/mmm,tetragonal,0.0,False,3.66407668,3.66437067,30.696077
Fe3S4,2,top-down,P2_1/m,2/m,monoclinic,0.0,False,3.30120751,5.49798463,28.104253
ZnCr2S5,3,top-down,Pmmn,mmm,orthorhombic,0.0,False,3.95449965,13.675488941229851,23.593072763102622
AgHO2,3,top-down,Cm,m,monoclinic,0.0,False,5.658590852579872,5.664647156364559,21.84875532817837
InTeCl,3,top-down,P2_1/c,2/m,monoclinic,1.9407,False,7.14751508,13.7404074,26.060996
Cr(OF)2,3,top-down,P2_1/c,2/m,monoclinic,2.7013999999999996,False,4.96593621,8.90444938,24.660943
Sr2TaCu2O7,4,top-down,Pmc2_1,mm2,orthorhombic,0.0,False,5.457319192604122,5.426757377413576,29.14433011010665
VOF3,3,top-down,Pc,m,monoclinic,3.1066000000000003,True,4.930363696842654,5.673673897730895,23.078564
ZnSe,2,top-down,P4/nmm,4/mmm,tetragonal,2.1824,True,4.0930628,4.0930628,23.02446372
AgSbS2,3,top-down,Pc,m,monoclinic,1.9717999999999996,True,5.61126999,17.77602782,22.588229
FeBiO3,3,top-down,P1,1,triclinic,2.0925000000000002,True,5.8911576262669,5.984094571958506,21.065777953893218
BSbO3,3,top-down,C2,2,monoclinic,3.9486999999999997,True,4.968604202180999,4.967913620182832,23.899574
CaSn2F6,3,top-down,P-1,-1,triclinic,3.9867,False,4.383783316626003,7.194240032317506,27.481223
Cu2HgI4,3,top-down,P2/m,2/m,monoclinic,0.41659999999999986,True,7.590757537089287,4.935051177871026,23.773679
Mg4H2O5,3,top-down,P-3m1,-3m,trigonal,2.503,True,3.03843143,3.038430995406418,31.422963
NaAsH4O5,4,top-down,P2_1/m,2/m,monoclinic,3.4800999999999997,False,5.80830002,6.36251952,26.956668
CaB2(HO)8,4,top-down,P-1,-1,triclinic,4.4534,False,5.67157475586706,8.246515270793736,25.901384895660808
ZnS,2,top-down,P3m1,3m,trigonal,0.0,False,3.8117404,3.8117402709349726,76.585695
NaSbF4,3,top-down,P2_1/c,2/m,monoclinic,4.528499999999999,False,5.57907488,8.06989994,26.53364
Li2NiO2,3,top-down,P-3m1,-3m,trigonal,1.7477,True,3.05687518,3.0568745731298805,23.689624
LiVF4,3,top-down,P2/m,2/m,monoclinic,2.2347,True,3.10670343,5.41305231,22.065178
MnSbSe2I,4,top-down,P2/m,2/m,monoclinic,0.07380000000000009,False,3.92314356,10.52934485,25.584434
CuSe2Br,3,top-down,P222_1,222,orthorhombic,0.7595999999999998,False,4.93934081,7.80338069,23.08857
Hg4AsI5,3,top-down,P4/nbm,4/mmm,tetragonal,1.2031999999999998,True,8.580344581621045,8.58034465192066,26.884767
MnSbSe2Br,4,top-down,P2/m,2/m,monoclinic,0.0,False,3.9091915966860964,9.743856617592801,37.539708
K2S5,2,top-down,P2_1,2,monoclinic,1.122,False,6.63384957,8.51922779,25.190317
NbOF3,3,top-down,P-1,-1,triclinic,3.5573999999999995,False,7.722625618980106,8.752670115534293,25.511724
Nd2BC,3,top-down,C2/m,2/m,monoclinic,0.0,False,3.61376863,7.374046683441216,23.428228
CoI2,2,top-down,P-3m1,-3m,trigonal,0.0,False,3.9390234,3.939023632245333,23.069546
Cr(PO4)2,3,top-down,P-1,-1,triclinic,0.0,False,4.86388714138703,5.01300123053104,26.000365
FeCuS2,3,top-down,P3m1,3m,trigonal,0.0,False,3.7846024114319725,3.7853837287863357,22.965645
Al(HO)3,3,top-down,P-1,-1,triclinic,4.1711,False,5.007339730842084,8.818228396242052,24.011012
YbH2ClO2,4,top-down,P2_1/m,2/m,monoclinic,0.0,False,3.54187506,6.06788595,25.492069
MnSbS2Cl,4,top-down,Pmc2_1,mm2,orthorhombic,0.2120000000000002,False,3.66651041,9.95385917,25.277452
VOF3,3,top-down,Pc,m,monoclinic,2.7838000000000003,False,5.22111646,5.429319624903494,23.191174281136785
CaPbI4,3,top-down,P2/m,2/m,monoclinic,2.9791999999999996,False,4.51726610951824,7.90899550036602,23.81604750427166
CrOF,3,top-down,Pmmn,mmm,orthorhombic,2.3496,True,3.0355925,3.93206752,24.276136
In3SbTe2,3,top-down,P4/nmm,4/mmm,tetragonal,0.0,False,4.397918684567141,4.405854855542105,35.416978
LiAuI4,3,top-down,P-1,-1,triclinic,0.8538999999999999,False,4.340555506269268,7.075679174512067,23.691292
CrSe,2,top-down,P4/nmm,4/mmm,tetragonal,0.0,False,3.51333249,3.51333249,23.354627
Sb3Pb,2,top-down,P-6m2,-6m2,hexagonal,0.0,False,6.42266904,6.422669118867053,20.0
AgBrO4,3,top-down,P-4,-4,tetragonal,1.4662000000000006,False,4.90621096,4.90621096,21.851947
LiCrSiO4,4,top-down,P2_1/m,2/m,monoclinic,3.0125,False,4.71867544,6.2096408,24.428533
CoBr2,2,top-down,P-3m1,-3m,trigonal,0.04310000000000036,False,3.70174282,3.7017436015922462,22.858078
InSnCl3,3,top-down,Cm,m,monoclinic,2.6639,True,5.568470610893633,5.558673213175319,22.640169
YbI2,2,top-down,P-3m1,-3m,trigonal,3.9823999999999997,False,4.43576574,4.4357660118655735,23.554197
CrGeTe3,3,top-down,P-31m,-3m,trigonal,0.4844999999999997,False,6.909160450000003,6.909159568638528,23.444588
SrH4O3,3,top-down,P1,1,triclinic,3.7966999999999995,False,3.8844676052122598,6.9332374878808976,25.404084
SmIO,3,top-down,P4/nmm,4/mmm,tetragonal,3.7245999999999997,False,4.02142473,4.02142473,26.150091
SbTeClO3,4,top-down,Pmn2_1,mm2,orthorhombic,3.2204,False,5.47585061,7.24845116,24.068145
TiO,2,top-down,P4/nmm,4/mmm,tetragonal,0.0,False,2.8209858607871667,2.8210104923234844,33.658466
CuHO2,3,top-down,Pmn2_1,mm2,orthorhombic,0.0,False,2.98475702,3.85565013,25.527928
CuI,2,top-down,P-3m1,-3m,trigonal,2.0219,True,4.14543902,4.145438457226907,23.8053
CrBiO4,3,top-down,P2_1/c,2/m,monoclinic,1.6602999999999999,False,7.17439856,8.38036428,24.119132
SrH4(ClO)2,4,top-down,P2/c,2/m,monoclinic,4.657,True,6.11830538,6.66136174,24.339186
Nb2ReO8,3,top-down,P2/c,2/m,monoclinic,0.13309999999999977,False,5.166238579888313,5.924361251028722,27.493174
BiP(PbO2)4,4,top-down,P-1,-1,triclinic,2.9436999999999998,True,6.328975102787657,7.27023592778724,28.515293
Mn3Co2Te3O16,4,top-down,P1,1,triclinic,0.5034999999999998,False,6.0986220134903135,6.069539830207428,27.552726
Cd(PO3)2,3,top-down,P2_1,2,monoclinic,3.1923999999999997,False,7.32603025,6.46120954,24.923764
Ba2Tl2Co3O10,4,top-down,P1,1,triclinic,0.0,False,3.701625437829216,3.702870674261483,61.366325
ZnSeO3,3,top-down,Pca2_1,mm2,orthorhombic,4.1041,True,6.55353634,11.22527904,23.365213
Ta2Se3,2,top-down,P2_1/m,2/m,monoclinic,0.0,False,3.39170885,9.85131922,23.767107
TmClO,3,top-down,P-3m1,-3m,trigonal,5.152,False,3.72448838,3.7244882101883987,26.277434
Al2Te3,2,top-down,P2_1/c,2/m,monoclinic,1.8108,False,7.25745961,12.86614056,24.259049
LiFeSiO4,4,top-down,P2_1/m,2/m,monoclinic,2.1525,False,4.74613997,6.22897665,24.476918
Al2Te5,2,top-down,C2/m,2/m,monoclinic,1.4575999999999998,False,4.18084534,8.312884451539803,24.078083
MnH2SO4,4,top-down,Pc,m,monoclinic,4.1741,False,4.801115886422186,5.772997976468477,25.87267
Rb2Bi3F11,3,top-down,P1,1,triclinic,0.0,False,3.9266936382729085,4.377207578981411,36.447367
TaNiTe5,3,top-down,Pmma,mmm,orthorhombic,0.0,False,3.73602115,15.19287468,24.599429
NaClO2,3,top-down,P2/c,2/m,monoclinic,2.7074999999999996,True,6.4651485007675396,6.708357544270399,21.542916
GaTeI7,3,top-down,Pc,m,monoclinic,1.9303000000000003,False,7.13208315,19.21415224,24.319578
BN,2,top-down,P-6m2,-6m2,hexagonal,4.6628,False,2.50899515,2.508995128362185,20.0
Sr2Cu2SbO7,4,top-down,Pmc2_1,mm2,orthorhombic,0.0,False,5.1144121639191535,5.176531347528241,30.074744
Mn3F8,2,top-down,P-1,-1,triclinic,1.0168,False,6.400968439929845,6.458589822524646,22.213037
KBi2F7,3,top-down,P1,1,triclinic,0.0,False,4.372190000590705,3.986776024948879,39.249746
Ni2SbTe2,3,top-down,P-6m2,-6m2,hexagonal,0.0,False,3.90411174,3.9041113598540944,25.062119
TiZn(GeO3)2,4,top-down,P2_1/c,2/m,monoclinic,2.2731,False,5.33031274,8.45831559,29.945863
AsSeI,3,top-down,P2_1/c,2/m,monoclinic,1.4228,False,3.96492415,13.53056371,24.008591
TcSO6F,4,top-down,P2_1/c,2/m,monoclinic,2.8268999999999997,False,8.14628556,8.98154958,25.991682
Er6I7,2,top-down,C2/m,2/m,monoclinic,0.0,False,3.94478218,10.929022449598163,29.104353
Sr,1,top-down,Cmmm,mmm,orthorhombic,0.0,False,7.417991326450763,7.41799090850748,20.0
B2TeO5,3,top-down,P2_1/c,2/m,monoclinic,3.7294,False,9.12473796,9.96985125,23.575773