Formula,No. of Elements,Discovery Process,Space Group,Point Group,Crystal System,Band Gap,Is Gap Direct?,a,b,c
MnSe2,2,bottom-up,P-3m1,-3m,trigonal,0.0,False,3.471662,3.4716624456973055,22.641327
RuI4,2,bottom-up,P2_1/c,2/m,monoclinic,0.0,False,6.688845119117473,6.846292641325432,23.360257920530167
VI4,2,bottom-up,P2_1/c,2/m,monoclinic,0.0,False,6.80229401,9.942857382852786,25.818481425378664
Ba2Zn,2,bottom-up,P4/mmm,4/mmm,tetragonal,0.0,False,4.0659796,4.0659796,23.983674
YI3,2,bottom-up,Pmmn,mmm,orthorhombic,1.8297999999999999,False,4.157043,9.9305,24.85506
Sr5Ir,2,bottom-up,Pmc2_1,mm2,orthorhombic,0.0,False,7.326389,8.039939,25.78836
ScGe3,2,bottom-up,P6/mmm,6/mmm,hexagonal,0.0,False,5.484648670000001,5.484648931262823,20.0
BTe,2,bottom-up,C2/m,2/m,monoclinic,1.8321999999999998,False,3.587974260733024,10.24093553144049,25.588658175722994
Mn3Cl8,2,bottom-up,C2/m,2/m,monoclinic,0.0,False,7.119541146409363,7.141930998400683,22.17551984947334
In4S3,2,bottom-up,Pmn2_1,mm2,orthorhombic,1.3835000000000002,False,3.87554207,11.91206177,30.194773
B2Te5,2,bottom-up,P-1,-1,triclinic,0.0018000000000000238,False,3.8179022121352193,7.833789389406572,24.185026087679457
Al2S,2,bottom-up,P3,3,trigonal,0.0,False,9.818384870000003,9.81838470268739,23.56451
TlI,2,bottom-up,P4mm,4mm,tetragonal,1.2168999999999999,True,4.668116,4.668116,22.485034
Re2F7,2,bottom-up,P2/c,2/m,monoclinic,0.2633000000000001,True,5.173648021365769,10.517519321571731,23.69029
BeCl2,2,bottom-up,P-4m2,-42m,tetragonal,5.362900000000001,False,3.3208473,3.3208473,22.656191
NiS,2,bottom-up,P-3m1,-3m,trigonal,0.0,False,3.596183,3.59618289319064,23.678874
BiB,2,bottom-up,P-6m2,-6m2,hexagonal,0.0,False,3.91337254,3.9133737748549198,20.0
SnP,2,bottom-up,C2/m,2/m,monoclinic,1.5374999999999999,False,3.930763,11.899379260011884,24.728488063467612
Sb4I,2,bottom-up,P2/m,2/m,monoclinic,0.0,False,4.246833,12.777964924166328,33.73924136082579
BaAu,2,bottom-up,P6/mmm,6/mmm,hexagonal,0.0,False,4.893662,4.893661472127593,24.159589
GaF,2,bottom-up,Pbcm,mmm,orthorhombic,2.8418000000000005,False,4.7681568,5.27237668,23.094001
RhSe,2,bottom-up,P4/nmm,4/mmm,tetragonal,0.0,False,3.92225,3.92225,22.797818
YSe3,2,bottom-up,P4/nmm,4/mmm,tetragonal,0.0,False,3.93759677,3.93768772,29.216602
Sb2Pd,2,bottom-up,C2/m,2/m,monoclinic,0.0,False,4.486059214585893,4.442401285648675,25.13668617820211
Be2N,2,bottom-up,P-3m1,-3m,trigonal,0.0,False,2.643129,2.643129371694469,23.013137
TaI5,2,bottom-up,P1,1,triclinic,0.34210000000000007,False,7.555623572991443,7.779259539380403,22.367989759238736
TcF3,2,bottom-up,C2/m,2/m,monoclinic,0.08550000000000058,False,4.951416989941019,4.951416981564754,22.079819068337333
PbF2,2,bottom-up,P-3m1,-3m,trigonal,3.4659,False,3.945952,3.945952282225547,23.73272
Ca2Hg,2,bottom-up,P4/mmm,4/mmm,tetragonal,0.0,False,3.70069353,3.70069353,23.983674
MnI3,2,bottom-up,C2/m,2/m,monoclinic,0.0,False,6.888167069318368,6.88816692018537,21.866185057251617
MnTe,2,bottom-up,P4/nmm,4/mmm,tetragonal,0.0,False,4.25071548,4.25071548,23.119205
TiTe5,2,bottom-up,Pmmn,mmm,orthorhombic,0.0,False,3.93159795,13.76916985,25.297553
NF3,2,bottom-up,Pmn2_1,mm2,orthorhombic,6.175199999999999,True,4.781652,7.07478,23.123083
HfF4,2,bottom-up,Pc,m,monoclinic,6.7305,False,5.040402869083511,5.329063453241463,22.910770524713126
TaSe,2,bottom-up,P4/nmm,4/mmm,tetragonal,0.0,False,3.843872,3.843872,23.448734
NbSe,2,bottom-up,P4/nmm,4/mmm,tetragonal,0.0,False,3.86166943,3.86166943,23.448734
B2Se3,2,bottom-up,P-62m,-6m2,hexagonal,1.4484000000000004,True,5.83180207,5.831802100008277,20.011829
Hf3Se2,2,bottom-up,P4/mmm,4/mmm,tetragonal,0.0,False,3.547052,3.547052,26.086724
Be2Hg,2,bottom-up,P4/mmm,4/mmm,tetragonal,0.0,False,2.7664603,2.7664603,23.983674
Al2Se5,2,bottom-up,C2/m,2/m,monoclinic,1.7101,False,3.809296,7.617299581325787,24.101297719786377
OsF4,2,bottom-up,P2_1/c,2/m,monoclinic,0.7343999999999999,False,5.0132949801963775,5.466441055324974,23.379021254306725
Ga2Te5,2,bottom-up,C2/m,2/m,monoclinic,1.1579,False,4.20230477,8.372659273738764,24.100483998670686
Ga3Ir,2,bottom-up,P-6m2,-6m2,hexagonal,0.0,False,4.164892,4.164891760960901,25.130912
Sc2Cl3,2,bottom-up,C2/m,2/m,monoclinic,0.639,False,3.51975586,8.997889170128403,25.497570256261533
ZrF2,2,bottom-up,P2_1/m,2/m,monoclinic,0.7950999999999997,False,2.987463,5.687849411698767,24.41067772972551
TlCl,2,bottom-up,P4/nmm,4/mmm,tetragonal,3.4832,False,4.440234,4.482237,23.633843
CuCl,2,bottom-up,P-3m1,-3m,trigonal,1.3824,True,3.773302,3.7733030298771393,23.814717
AuF2,2,bottom-up,P2_1/c,2/m,monoclinic,0.3493000000000004,False,4.411311,6.201452354502935,21.694285017067557
InS,2,bottom-up,P-1,-1,triclinic,2.0391000000000004,False,3.9398256789490063,5.8790088551275375,23.409799013997254
TaCl3,2,bottom-up,P-31m,-3m,trigonal,0.0,False,5.740199,5.740198248200927,22.719179
B2Te5,2,bottom-up,C2/m,2/m,monoclinic,0.5137999999999998,True,3.81115333,7.792645370258106,24.16132269270259
Sc5F8,2,bottom-up,P2/m,2/m,monoclinic,0.0,False,3.22352588,11.547240562852686,25.19420145461969
MgBr2,2,bottom-up,P-4m2,-42m,tetragonal,4.3051,False,4.02507883,4.02507883,22.656191
LaSn3,2,bottom-up,P6/mmm,6/mmm,hexagonal,0.0,False,6.41262275,6.41262319615539,20.0
SbBr3,2,bottom-up,Pmn2_1,mm2,orthorhombic,2.5927,False,5.921778,8.306389,23.123083
VF2,2,bottom-up,P-3m1,-3m,trigonal,2.8813000000000004,True,3.29271526,3.2927153183799134,22.665532
GaF3,2,bottom-up,Pmc2_1,mm2,orthorhombic,4.5443999999999996,False,4.464709,5.046526,22.61305
BaCl2,2,bottom-up,P-4m2,-42m,tetragonal,5.2257,True,5.101717,5.101717,22.656191
NiTe,2,bottom-up,P3m1,3m,trigonal,0.0,False,3.74863514,3.748634689009455,21.231711
NiI2,2,bottom-up,P2_1/c,2/m,monoclinic,0.6827999999999999,False,6.72797019732289,7.995592,26.14792496974506
YSn3,2,bottom-up,P6/mmm,6/mmm,hexagonal,0.0,False,6.23678825,6.236788658518987,20.0
Sb9I2,2,bottom-up,P2_1/m,2/m,monoclinic,0.0,False,4.24791415,12.767252764164509,34.958708549668536
CuSe,2,bottom-up,P2/m,2/m,monoclinic,0.3567,False,3.479846,4.9692344422480215,22.600363639092226
ZrBr2,2,bottom-up,P2_1/m,2/m,monoclinic,0.6600999999999999,False,3.49579371,6.47201134444886,24.41178824153838
TeCl,2,bottom-up,P-1,-1,triclinic,0.7657,False,7.639545127541084,8.93574908484294,25.167813803343957
Nb2Se,2,bottom-up,P4/nmm,4/mmm,tetragonal,0.0,False,3.41302996,3.41302996,27.221538
FePb2,2,bottom-up,P4/mmm,4/mmm,tetragonal,0.0,False,3.247707,3.247707,22.803662
CuTe2,2,bottom-up,C2/m,2/m,monoclinic,0.0,False,3.09896,3.889525994335557,23.075398667394612
TcSe,2,bottom-up,P4/nmm,4/mmm,tetragonal,0.0,False,3.84397414,3.84397414,23.119205
ReS2,2,bottom-up,P-3m1,-3m,trigonal,0.0,False,3.119625,3.1196248167439946,22.641327
CuS,2,bottom-up,Pmmn,mmm,orthorhombic,0.0,False,2.76084752,3.84489524,23.889425
SiN,2,bottom-up,C2/m,2/m,monoclinic,1.4806000000000001,False,2.95803476,8.943449097114337,24.72221226710266
BiI4,2,bottom-up,P2/c,2/m,monoclinic,0.0,False,7.39336635418264,7.8099219861147375,22.677302425430504
Y5Cl8,2,bottom-up,P2/m,2/m,monoclinic,0.0,False,3.80988681,14.326464593490563,25.194129670143898
TeCl,2,bottom-up,C2/m,2/m,monoclinic,1.3549000000000002,False,4.036071106954815,8.772803246883642,25.888832246335067
AlSe,2,bottom-up,C2/m,2/m,monoclinic,1.6048,False,3.783414870784985,5.3693230627376884,23.439415375227238
NiF2,2,bottom-up,P-3m1,-3m,trigonal,5.1807,False,3.068826530000001,3.068826765315314,22.613573
NbI4,2,bottom-up,P4/mmm,4/mmm,tetragonal,0.0,False,5.654483,5.654483,23.812503
PPb,2,bottom-up,C2/m,2/m,monoclinic,0.8800999999999999,False,4.077605,12.391092585303808,24.724936941957893
ZrF4,2,bottom-up,P4/nbm,4/mmm,tetragonal,5.271100000000001,True,5.032986835314156,5.03856770839206,22.922473314707176
FeGe2,2,bottom-up,P4/mmm,4/mmm,tetragonal,0.0,False,2.75814236,2.75814236,22.803662
CuCl,2,bottom-up,Pmma,mmm,orthorhombic,0.6148999999999998,False,3.4371,3.348457,23.042555
Sr5Sc,2,bottom-up,P1,1,triclinic,0.0,False,4.160884652039996,7.436187644930163,25.336409068721892
SiF3,2,bottom-up,P1,1,triclinic,3.8875999999999995,False,4.543331317625574,7.212023618338894,24.133045470129748
BF3,2,bottom-up,Pmc2_1,mm2,orthorhombic,8.5829,False,4.280941,5.889031,22.61305
TaF4,2,bottom-up,P2_1/c,2/m,monoclinic,0.1532,True,4.84518606,7.8626611562162605,25.831534138718432
Mn2Cl7,2,bottom-up,P2/c,2/m,monoclinic,0.07540000000000013,True,5.916979026077242,11.906378510426467,23.69029
TcF4,2,bottom-up,P2_1/c,2/m,monoclinic,0.045700000000000074,False,4.95521688,5.669626440875194,23.11282502133043
Sr2Rh,2,bottom-up,P4/mmm,4/mmm,tetragonal,0.0,False,3.7155946,3.7155946,22.883476
ZrSn2,2,bottom-up,P4/nmm,4/mmm,tetragonal,0.0,False,4.116967,4.120589,25.781726
CoS,2,bottom-up,P4/nmm,4/mmm,tetragonal,0.0,False,3.622241,3.622241,22.797818
IrSe,2,bottom-up,P4/nmm,4/mmm,tetragonal,0.0,False,3.955422,3.955422,22.797818
TaS3,2,bottom-up,P-1,-1,triclinic,0.29400000000000004,False,5.002260638481697,6.754587256486948,26.33332657952729
MnCl3,2,bottom-up,P-3m1,-3m,trigonal,0.7225000000000001,True,11.50438322,11.504382342377298,26.856058
TlBr3,2,bottom-up,Pmc2_1,mm2,orthorhombic,0.7869000000000002,True,6.227744,7.65052,22.61305
Bi2Pd,2,bottom-up,P-3m1,-3m,trigonal,0.0,False,7.20079002,7.20079089818239,22.860006
SnTe,2,bottom-up,Pmmn,mmm,orthorhombic,1.2071999999999998,False,4.151577,6.541209,22.225044
TiBr4,2,bottom-up,P1,1,triclinic,1.7060999999999997,False,6.31396806473932,7.584922077150496,23.239916689511045
ScI3,2,bottom-up,Pmmn,mmm,orthorhombic,1.4503,False,3.80796939,11.52742057,24.85506
AuI,2,bottom-up,P-3m1,-3m,trigonal,1.0557000000000003,True,4.367301,4.36730072001574,23.814717
Mn2Br5,2,bottom-up,P2/c,2/m,monoclinic,0.0,False,6.13131808,6.817179029197486,26.427169602275132
MnCl4,2,bottom-up,P2_1/c,2/m,monoclinic,0.0,False,5.55438632,6.536462224192591,23.109164057238104
InTe,2,bottom-up,C2/m,2/m,monoclinic,1.2225,False,4.334286636916213,6.096416485388399,23.40581993972576
TcS2,2,bottom-up,P-3m1,-3m,trigonal,0.0,False,3.07213,3.0721303258608677,22.641327
ScPb3,2,bottom-up,P6/mmm,6/mmm,hexagonal,0.0,False,6.28967232,6.289672737685641,20.0
TaS2,2,bottom-up,C2/m,2/m,monoclinic,0.0,False,10.17168989,10.177241510955469,24.47931076854083
GeF3,2,bottom-up,P1,1,triclinic,3.5279000000000003,False,3.861931879085518,6.381316274271163,24.055955983050683
Y2Br3,2,bottom-up,C2/m,2/m,monoclinic,0.7031999999999999,False,3.883576,9.918188413841916,25.497172555996126
VSe3,2,bottom-up,P2_1/m,2/m,monoclinic,0.0,False,3.34126758,12.045648088130859,27.01269017472109
BP,2,bottom-up,P-6m2,-6m2,hexagonal,0.8654000000000002,True,3.208368,3.208368699151798,20.0
Ga2S,2,bottom-up,P3,3,trigonal,1.0242999999999998,True,10.89117147000001,10.89117153329506,23.381968
Nb2S3,2,bottom-up,P2_1/m,2/m,monoclinic,0.0,False,3.36624317,9.610601479364389,23.99885105855494
As2S5,2,bottom-up,P2_1/c,2/m,monoclinic,0.09580000000000011,False,7.46591495,7.155705979191093,32.14495139057911
Bi4F,2,bottom-up,P2/m,2/m,monoclinic,0.0,False,4.32495476,13.169570190280275,33.71300942554487
TaTe2,2,bottom-up,P-1,-1,triclinic,0.0,False,13.290707982572787,13.287999371942272,23.730423613131133
InBi3,2,bottom-up,P-3m1,-3m,trigonal,0.1737000000000002,True,9.089205460000002,9.089205793912539,21.198253
Sc2I5,2,bottom-up,P2_1/m,2/m,monoclinic,0.12919999999999998,False,3.98070748,16.341326741532995,26.5006095308987
Bi9Br2,2,bottom-up,P2_1/m,2/m,monoclinic,0.0,False,4.43731784,13.178853193088395,34.95071362239473
Te3P2,2,bottom-up,P2_1/m,2/m,monoclinic,0.0875999999999999,False,3.90798042,9.91441800316003,26.242013043014836
AlF,2,bottom-up,Pbcm,mmm,orthorhombic,0.7992000000000001,True,5.71472019,4.90963967,23.094001
HgI2,2,bottom-up,P-3,-3,trigonal,1.3131,False,7.47722714,7.477227462739125,23.168642
MnBr4,2,bottom-up,P2_1/c,2/m,monoclinic,0.0,False,5.93934426,6.957362177554433,23.09395390379103
V2Te3,2,bottom-up,C2/m,2/m,monoclinic,0.0,False,3.3537088331590446,10.044130370291946,24.971444428434133
Cr3Se4,2,bottom-up,P-3m1,-3m,trigonal,0.0,False,3.660314,3.65992241089275,29.26972902402817
AlS,2,bottom-up,P-3m1,-3m,trigonal,2.0968999999999998,False,3.59579384,3.595793541123198,24.623155
VSe2,2,bottom-up,P-1,-1,triclinic,0.0,False,12.037321006984694,12.039018846678342,23.732559610488018
CrBr2,2,bottom-up,P2_1/c,2/m,monoclinic,0.3239000000000001,False,3.967428,6.558881771239515,21.51548401329619
Ga2S,2,bottom-up,P3,3,trigonal,1.0210000000000004,False,10.93565464000001,10.935654340187831,23.56451
Ca5Rh,2,bottom-up,Pmc2_1,mm2,orthorhombic,0.0,False,6.72961719,7.54379747,25.78836
AlP3,2,bottom-up,P-3m1,-3m,trigonal,0.718,False,7.2331180000017286,7.233117822881707,21.19825300000295
Si4Ir,2,bottom-up,P4/nbm,4/mmm,tetragonal,0.0,False,5.900706572860129,5.900706092860179,22.924308000000106
TlTe,2,bottom-up,P-1,-1,triclinic,0.6525000000000001,True,4.46505452179489,13.27827675534483,25.58842682196577
MgF2,2,bottom-up,P-4m2,-42m,tetragonal,6.7101,False,3.3799048400547074,3.3801103205391994,22.65619100350528
InTe,2,bottom-up,P-1,-1,triclinic,1.3874,False,4.337776891105899,12.993165084942317,25.59186196115435
Ti3Te2,2,bottom-up,P4/mmm,4/mmm,tetragonal,0.0,False,3.526431062777983,3.5264309627779538,26.086724000000483
CrS3,2,bottom-up,P2_1/c,2/m,monoclinic,0.4902000000000002,True,10.1479798,9.958170328942368,24.48309897605217
CoCl4,2,bottom-up,P2_1,2,monoclinic,0.0,False,5.798762376417326,6.405155476514504,22.976237625646718
AlP5,2,bottom-up,Pmc2_1,mm2,orthorhombic,0.40749999999999975,True,6.46178029,11.82803837,26.806861
TlP3,2,bottom-up,P-3m1,-3m,trigonal,0.0,False,7.63478407580424,7.6775350778716085,21.198185304227437
Tc2F5,2,bottom-up,P2/c,2/m,monoclinic,0.0,False,4.93341275,5.486801889057392,25.1716824606472
NbCl3,2,bottom-up,P-31m,-3m,trigonal,0.0,False,5.8080787944257155,5.807919492614181,22.719179092257757
B4Se3,2,bottom-up,Pmn2_1,mm2,orthorhombic,0.6366999999999998,False,3.265083,8.656231244642498,30.194774853664416
VBr4,2,bottom-up,P2_1/c,2/m,monoclinic,0.08010000000000028,False,6.21499648,9.21040564614133,25.797446634846043
TaS3,2,bottom-up,P2_1/m,2/m,monoclinic,0.12849999999999984,False,3.404534,11.452687603037683,27.012983389876357
PCl3,2,bottom-up,P2_1/c,2/m,monoclinic,3.8724,False,8.255410483437574,9.534776000000054,24.560382222436257
TeF,2,bottom-up,C2/m,2/m,monoclinic,1.1561,False,3.925919758942865,7.6666541830989745,25.9128042809256
TlSb5,2,bottom-up,Pmc2_1,mm2,orthorhombic,0.7184,True,7.96601993,14.13889327,26.806861
SnI3,2,bottom-up,P1,1,triclinic,0.7262,False,6.506731401683413,7.838625787369174,24.445208812484584
NF4,2,bottom-up,P1,1,triclinic,1.3988999999999994,False,5.3207208854880745,5.422825792799268,22.440852995820393
Y7I10,2,bottom-up,P-1,-1,triclinic,0.0,False,4.075612454799646,18.25714836451046,26.845455646822497
Os4S5,2,bottom-up,P-1,-1,triclinic,0.0,False,8.310973646332599,8.353264347466897,22.535243106237978
Ta2O5,2,bottom-up,P2_1/m,2/m,monoclinic,3.6685999999999996,False,3.8420711400000003,10.842133356227652,24.974231768570117
Re2F7,2,bottom-up,P2_1,2,monoclinic,0.04859999999999998,False,5.19868847,7.576073646765995,31.326302264171346
BSb,2,bottom-up,P-6m2,-6m2,hexagonal,0.2189000000000001,True,3.737570000016187,3.7375745340336697,20.000000000000025
Mn2Br7,2,bottom-up,P2/c,2/m,monoclinic,0.0,False,6.288055567063468,12.611836763674887,23.69029
NbCl5,2,bottom-up,P-1,-1,triclinic,2.1702,False,6.266633612441591,6.600230237122616,30.50128613274682
SnSb2,2,bottom-up,Pmc2_1,mm2,orthorhombic,0.7101000000000001,False,4.338042930348806,11.764774749487389,25.60755546196217
Re2I5,2,bottom-up,P2/c,2/m,monoclinic,0.0,False,6.44802333513967,6.911968824441746,25.16270442770254
Tl2Se,2,bottom-up,P3,3,trigonal,1.2782999999999998,False,12.69988586000003,12.699885360163075,23.56451
Sb2Pt,2,bottom-up,P-3m1,-3m,trigonal,0.0,False,7.222524838636385,7.222196677018509,22.860005951544686
GeSb3,2,bottom-up,P-3m1,-3m,trigonal,0.0,False,8.26487681066858,8.264692127280668,21.68016398082946
BaPb2,2,bottom-up,P-3m1,-3m,trigonal,0.0,False,3.5281800000012753,3.5281827911368198,24.445951000000207
As2Pd,2,bottom-up,P2_1/m,2/m,monoclinic,0.0,False,3.8126850027230152,4.4149450800539976,24.556713071827772
Ta2O5,2,bottom-up,P2_1/m,2/m,monoclinic,2.9785999999999997,False,3.8333341000000005,6.6798312637565616,27.122948213812396
Te3W,2,bottom-up,P2_1/c,2/m,monoclinic,0.017900000000000027,True,10.95187294,11.294518120869833,24.489089881238787
InSb3,2,bottom-up,P-3m1,-3m,trigonal,0.4637000000000002,True,8.78289700543585,8.78282444859568,21.19825302513891
MgCu,2,bottom-up,P6/mmm,6/mmm,hexagonal,0.0,False,4.037241029986443,4.0356476338928555,24.15958901601294
TaCl4,2,bottom-up,P2_1/c,2/m,monoclinic,0.3777999999999997,False,6.047625,11.697409770540016,24.509512688571043
AlP,2,bottom-up,P-6m2,-6m2,hexagonal,2.2554,False,3.9453191987333454,3.9471074881984727,20.000000000000785
BiI3,2,bottom-up,P2_1/c,2/m,monoclinic,2.4135999999999997,False,7.725473119657761,13.04160124,25.191441844588255
HfBr3,2,bottom-up,P-31m,-3m,trigonal,0.0,False,6.424658910002001,6.424663191989563,23.034941000005286
BeCu,2,bottom-up,P6/mmm,6/mmm,hexagonal,0.0,False,3.890121001852899,3.890146742578614,24.159589000012627
EuC2,2,bottom-up,C2/m,2/m,monoclinic,0.0,False,2.6860688881123282,5.090172606451572,24.050628031899144
Y2F5,2,bottom-up,P2_1/m,2/m,monoclinic,0.4460999999999995,False,3.646594550000002,8.881978978584211,26.436003005606107
InN,2,bottom-up,P4/nmm,4/mmm,tetragonal,0.8113000000000001,False,4.294120000359562,4.294294000268379,23.942319000514946
BiB,2,bottom-up,P4/nmm,4/mmm,tetragonal,0.0,False,3.762988,3.762988,23.942319
MnS,2,bottom-up,P4/nmm,4/mmm,tetragonal,0.0,False,3.5156480186373895,3.5156400186372894,23.119205000000974
Sn3Br8,2,bottom-up,P1,1,triclinic,1.2329999999999999,True,6.858036587124643,7.194316265476427,33.54225093269634
InP5,2,bottom-up,Pmc2_1,mm2,orthorhombic,1.0757000000000003,True,6.511354800007885,12.154033480337946,26.80686100074711
Sn3Ir,2,bottom-up,P4/mbm,4/mmm,tetragonal,0.0,False,6.3900531654796895,6.390078135416308,25.63583200934085
In2S,2,bottom-up,P3,3,trigonal,0.7223000000000002,True,11.508018940000046,11.508019015245354,23.381968
BaGe2,2,bottom-up,P-3m1,-3m,trigonal,0.0,False,3.270014224481294,3.269994614763303,24.445951164737814
ScBe5,2,bottom-up,P1,1,triclinic,0.0,False,2.3428316722908202,4.207274815221131,25.973844531985694
ZnI2,2,bottom-up,P-4m2,-42m,tetragonal,2.9327000000000005,True,8.378753224803168,8.394451064301318,26.753850002901707
Sc2F5,2,bottom-up,P2_1/m,2/m,monoclinic,0.6779999999999999,False,3.1547963400002135,11.412315940969291,26.614463862343666
Mn3Br8,2,bottom-up,C2/m,2/m,monoclinic,0.0,False,7.395327770222653,7.458992730454048,22.141102428743427
MoF2,2,bottom-up,P4/mbm,4/mmm,tetragonal,1.6483999999999996,True,11.662236960549158,11.676303150723145,28.92168200045191
AuS,2,bottom-up,P-1,-1,triclinic,0.3208000000000002,False,3.564241586617131,6.374429621263459,25.30146922047052
ZrBr3,2,bottom-up,P-31m,-3m,trigonal,0.0,False,6.509546,6.509545824107317,23.034941
IN4,2,bottom-up,P2/m,2/m,monoclinic,0.3380000000000001,False,4.27847354000006,9.532629861659732,33.9875316497937
PdC3,2,bottom-up,P1,1,triclinic,0.0,False,5.534237046402721,5.00708668204062,26.27698731331778
TiF3,2,bottom-up,P-1,-1,triclinic,0.4006999999999996,True,5.0620615477440385,5.211515981034018,23.573881084466283
GaP3,2,bottom-up,P-3m1,-3m,trigonal,0.7487999999999997,False,7.19940263000922,7.1994020100078835,21.198253000025904
CoSi3,2,bottom-up,P42_12,422,tetragonal,0.0,False,5.439006898214117,5.440106805642919,25.635831595848718
Sc2S3,2,bottom-up,P1,1,triclinic,1.6025999999999998,False,6.433576574976283,6.667832159401211,21.267938616993455
MnF2,2,bottom-up,P-3m1,-3m,trigonal,3.7363000000000004,True,3.333614006957164,3.333603370387965,23.320294042595435
Bi2O5,2,bottom-up,Pmn2_1,mm2,orthorhombic,0.04349999999999987,True,6.133484115709846,6.148235207517276,25.59616853666802
Mg2N,2,bottom-up,P-3m1,-3m,trigonal,0.0,False,3.2110033110528216,3.211003359197593,23.01313700945844
CoPb3,2,bottom-up,P4/mbm,4/mmm,tetragonal,0.0,False,6.50830322050946,6.509713560148332,25.635832001114398