Formula,No. of Elements,Discovery Process,Space Group,Point Group,Crystal System,Band Gap,Is Gap Direct?,a,b,c
HgCl2,2,bottom-up,P-3,-3,trigonal,2.5156,True,6.80141403,6.801414264910132,23.168642
ZrC2,2,bottom-up,P4/nmm,4/mmm,tetragonal,0.0,False,3.136302,3.13729,25.781726
Ba2Rh,2,bottom-up,P4/mmm,4/mmm,tetragonal,0.0,False,3.850281,3.850281,22.883476
Ba2Cd,2,bottom-up,P4/mmm,4/mmm,tetragonal,0.0,False,4.18135409,4.18135409,23.983674
Te4Mo3,2,bottom-up,P-3m1,-3m,trigonal,0.0,False,4.024959,4.027290245031018,29.26973062608906
TiCu,2,bottom-up,P4/nmm,4/mmm,tetragonal,0.0,False,2.73508,2.73508,24.42588
Mg5Ir,2,bottom-up,Pmc2_1,mm2,orthorhombic,0.0,False,5.52312299,6.97546302,25.78836
TlCl,2,bottom-up,Pbcm,mmm,orthorhombic,3.4459,False,6.246182,6.277511,23.094001
SbCl3,2,bottom-up,Pmn2_1,mm2,orthorhombic,3.5924,False,6.07793,7.213797,23.123083
Sc7Br10,2,bottom-up,P-1,-1,triclinic,0.0,False,3.654813427301704,16.309348469568555,26.84702271328847
ReF4,2,bottom-up,P2_1/c,2/m,monoclinic,0.10660000000000025,True,4.79612819,5.706116655070249,23.115079847758924
BS,2,bottom-up,P-3m1,-3m,trigonal,2.9017,False,3.055363,3.05536277097254,24.623155
RuBr4,2,bottom-up,P2_1/c,2/m,monoclinic,0.0,False,6.206449533786477,6.5305944833936245,23.36209615940886
MnBr3,2,bottom-up,C2/m,2/m,monoclinic,0.0008999999999996788,False,6.490513792346998,6.49051377370664,22.009280219427644
TlCl3,2,bottom-up,Pmc2_1,mm2,orthorhombic,1.3847000000000005,False,5.851482,6.646353,22.61305
NbF5,2,bottom-up,P1,1,triclinic,4.4265,False,5.186943540163822,7.721182932107064,23.7571227713144
AuS,2,bottom-up,P2/m,2/m,monoclinic,1.3266999999999998,False,3.531237,6.091429996878648,22.535754631417003
ZrF2,2,bottom-up,P2_1/m,2/m,monoclinic,0.7993000000000001,False,2.985507,5.697189467899501,24.406546740992468
Tc3F8,2,bottom-up,P1,1,triclinic,0.08499999999999996,False,5.962301227906233,5.813292036701699,22.209087174270362
CrI2,2,bottom-up,P2_1/c,2/m,monoclinic,0.04920000000000013,False,4.20980785,7.0195747390376395,21.524809297521674
TlN,2,bottom-up,P-6m2,-6m2,hexagonal,0.06159999999999988,False,3.740028,3.740029507867151,20.0
NbS3,2,bottom-up,P2_1/m,2/m,monoclinic,0.0,False,3.37980823,15.03565650987025,27.85377469334529
NiBi2,2,bottom-up,P4/mmm,4/mmm,tetragonal,0.0,False,3.26293296,3.26293296,23.530469
TiI4,2,bottom-up,P1,1,triclinic,0.11209999999999987,True,6.930639910449684,7.607441761851155,23.038340363719822
PF4,2,bottom-up,P1,1,triclinic,5.9466,False,5.366209148983671,6.5793463284711144,22.532874083859497
NbSe2,2,bottom-up,P-1,-1,triclinic,0.05310000000000015,False,12.6661834507355,12.665299584327295,23.734019567468774
Bi4Cl,2,bottom-up,P2/m,2/m,monoclinic,0.0,False,4.40730712,13.040803033796527,33.72202716861124
PbCl2,2,bottom-up,P-3m1,-3m,trigonal,3.1024,False,4.3263066,4.326307024213646,23.73272
SnCl3,2,bottom-up,P1,1,triclinic,1.9427000000000003,False,5.585165641125248,7.964444762419788,24.081392258570148
Mn2I5,2,bottom-up,P2/c,2/m,monoclinic,0.0,False,6.70747297,7.342101204211131,26.384733775301417
SnTe2,2,bottom-up,P-3m1,-3m,trigonal,0.0,False,4.12818266,4.128182984740116,22.955696
Te3As2,2,bottom-up,Pc,m,monoclinic,1.0092999999999999,False,4.525341164887272,13.040271333824968,22.708289
TeBr,2,bottom-up,C2/m,2/m,monoclinic,1.1280000000000001,False,4.094324903702738,9.11156212794894,25.89381049171792
Be2Rh,2,bottom-up,P4/mmm,4/mmm,tetragonal,0.0,False,2.802438,2.802438,22.883476
TaSe2,2,bottom-up,C2/m,2/m,monoclinic,0.0,False,10.53625096,10.563244557576029,24.481573999450635
CoF2,2,bottom-up,P-3m1,-3m,trigonal,0.0,False,3.159119,3.1591189836296127,22.668984
VI4,2,bottom-up,P2_1/c,2/m,monoclinic,0.0,False,7.011159,12.909928738512889,24.439975757015677
YMg5,2,bottom-up,P1,1,triclinic,0.0,False,3.1804497371834066,6.22382475590854,25.357062741444544
TlI3,2,bottom-up,Pmc2_1,mm2,orthorhombic,0.9167000000000001,True,7.74446836,7.15913843,22.61305
In2Se5,2,bottom-up,P1,1,triclinic,1.4284,False,4.094787733747155,8.004086640097398,24.10113656570202
NbBr5,2,bottom-up,P-1,-1,triclinic,1.4377,False,6.752051841993367,6.990150953432303,30.611707248319824
InP,2,bottom-up,P4/nmm,4/mmm,tetragonal,0.0,False,4.396,4.396,23.942319
VS3,2,bottom-up,P-1,-1,triclinic,0.1593,False,4.901841179222048,6.49793061319525,26.332599512282375
ScI2,2,bottom-up,P4/mmm,4/mmm,tetragonal,0.0,False,3.6819488,3.6819488,23.801584
Te3Mo,2,bottom-up,P2_1/c,2/m,monoclinic,0.0,False,10.94453431,11.355367391944272,24.486038214989755
TlAs5,2,bottom-up,Pmc2_1,mm2,orthorhombic,1.0222999999999998,False,7.07330676,13.02808498,26.806861
TlSe,2,bottom-up,C2/m,2/m,monoclinic,0.8989000000000003,False,4.189236162959186,6.141971667678792,23.419459841816202
SI,2,bottom-up,P-1,-1,triclinic,1.0089000000000001,False,7.8985510875912555,9.27150023694914,25.13783761375845
TcCl3,2,bottom-up,P-3m1,-3m,trigonal,0.9309000000000003,False,10.18649556,10.186494944691216,26.856058
Cu2S,2,bottom-up,P2_1,2,monoclinic,0.5771999999999999,False,5.098242,5.110429081214316,22.561544788880237
SeI,2,bottom-up,C2/m,2/m,monoclinic,0.649,False,3.9055885724583175,9.182983298714749,25.891002185637642
V2Te3,2,bottom-up,P2_1/m,2/m,monoclinic,0.0,False,3.661933894411602,9.991590415434146,24.16116932680816
TiGe2,2,bottom-up,P4/nmm,4/mmm,tetragonal,0.0,False,3.630605,3.624301,25.781726
AgF,2,bottom-up,Pmma,mmm,orthorhombic,0.0058000000000006935,False,3.297397,3.3806,23.042555
Ta2S,2,bottom-up,P4/nmm,4/mmm,tetragonal,0.0,False,3.330136,3.330136,27.221538
Tl4Se3,2,bottom-up,Pmn2_1,mm2,orthorhombic,0.3304,False,4.20646924,12.70462844,30.194773
Zr3Te2,2,bottom-up,P4/mmm,4/mmm,tetragonal,0.0,False,3.76792728,3.76792728,26.086724
NbSe3,2,bottom-up,P-1,-1,triclinic,0.0,False,5.300200332842052,7.045246554638736,26.333310527551088
AgI,2,bottom-up,Pmma,mmm,orthorhombic,0.8623000000000001,False,4.05510606,4.13783194,23.042555
PbF3,2,bottom-up,P1,1,triclinic,1.3307000000000002,False,4.296069238730446,6.053788752548606,24.04322564582477
Tl2Te,2,bottom-up,P3,3,trigonal,1.2576999999999998,False,13.52035000000015,13.52034987407371,23.56451
WF2,2,bottom-up,P2_1/c,2/m,monoclinic,1.6746000000000003,True,4.448534,6.191420374707649,21.609541058797525
P2S5,2,bottom-up,P2_1/c,2/m,monoclinic,0.3900000000000001,False,7.53922751,6.736593901051065,32.19364727367935
NiBi2,2,bottom-up,P2_1/m,2/m,monoclinic,0.0,False,4.029390420955448,5.471330031769322,24.517702886902367
Tc2F7,2,bottom-up,P2/c,2/m,monoclinic,0.7219000000000007,False,5.187942847960997,10.286899092060956,23.69029
VS,2,bottom-up,P4/nmm,4/mmm,tetragonal,0.0,False,3.607696,3.607696,23.448734
TiCl3,2,bottom-up,P-1,-1,triclinic,0.0013999999999998458,True,6.000539519686126,5.982688836542562,24.506454944042538
SnAs,2,bottom-up,P-1,-1,triclinic,1.1089999999999998,False,4.063491091129499,12.187523875827118,24.951769701464595
CF4,2,bottom-up,P4/mmm,4/mmm,tetragonal,3.3672,True,3.615152035170305,3.615136,23.8182621298409
InSb,2,bottom-up,P4/nmm,4/mmm,tetragonal,0.0,False,4.63055378,4.63055378,23.942319
VCl4,2,bottom-up,P2_1/c,2/m,monoclinic,0.0,False,5.87219813,8.648916769965874,25.822207886989872
ScTe3,2,bottom-up,P4/nmm,4/mmm,tetragonal,0.0,False,4.28729569,4.28695452,29.216602
Ba5Ir,2,bottom-up,Pmc2_1,mm2,orthorhombic,0.0,False,7.66373093,8.26337664,25.78836
Be5Ir,2,bottom-up,Pmc2_1,mm2,orthorhombic,0.0,False,4.590119,4.384685,25.78836
In3Ir,2,bottom-up,P-6m2,-6m2,hexagonal,0.0,False,4.498887,4.498886876954788,25.130912
Nb2S3,2,bottom-up,P2_1/m,2/m,monoclinic,0.0,False,3.3590994111454173,9.613421418520767,24.164224553885223
ReF3,2,bottom-up,P-3m1,-3m,trigonal,1.2675,False,9.088465,9.088464755148145,26.856058
VTe,2,bottom-up,P4/nmm,4/mmm,tetragonal,0.0,False,3.6832,3.6832,23.448734
BiF3,2,bottom-up,Pmn2_1,mm2,orthorhombic,5.1962,True,4.79240885,6.07645156,23.123083
AlF3,2,bottom-up,Pmc2_1,mm2,orthorhombic,6.607900000000001,False,4.373476,4.831888,22.61305
BF,2,bottom-up,P4mm,4mm,tetragonal,2.8942,False,3.83964,3.83964,22.485034
As2S3,2,bottom-up,P2_1/m,2/m,monoclinic,0.9712000000000001,False,3.60038526,9.238294941884437,26.221610456003877
Nb2Te3,2,bottom-up,P2_1/m,2/m,monoclinic,0.0,False,3.59765,10.390769698663568,23.99743819433833
VI5,2,bottom-up,P-1,-1,triclinic,0.24049999999999994,False,7.130507283425147,7.236413650112723,30.548853944763916
Ga2Te5,2,bottom-up,P1,1,triclinic,0.8572,False,4.1996915960220225,8.318217091180717,24.09956743674284
InF,2,bottom-up,P4mm,4mm,tetragonal,1.1425,False,3.91395705,3.91395705,22.485034
IrPb4,2,bottom-up,P4/nbm,4/mmm,tetragonal,0.0,False,6.703957,6.703957,22.924308
AgBr,2,bottom-up,P-6m2,-6m2,hexagonal,1.7542999999999997,True,4.539527240000001,4.539527236015213,20.0
BiCl4,2,bottom-up,Cmmm,mmm,orthorhombic,0.0,False,6.018592895881972,6.880643880698952,22.462336204794262
ZrBr2,2,bottom-up,P2_1/m,2/m,monoclinic,0.5758000000000001,False,3.49561962,6.473660444802247,24.42748154396587
CdI2,2,bottom-up,P-4m2,-42m,tetragonal,2.6978999999999997,True,8.811566,8.811566,26.75385
Ta2Se3,2,bottom-up,C2/m,2/m,monoclinic,0.09289999999999976,False,3.349721176145498,10.135744129622534,24.972950142635668
Tl3Ir,2,bottom-up,P-6m2,-6m2,hexagonal,0.0,False,4.60981107,4.609810627997985,25.130912
Tl2Te,2,bottom-up,P3,3,trigonal,1.2475,False,13.522098200000118,13.522098327490113,23.381968
NbCl4,2,bottom-up,P4/mmm,4/mmm,tetragonal,0.0,False,4.924822,4.924822,23.812503
TaCl5,2,bottom-up,P1,1,triclinic,2.5359999999999996,False,6.58484893573558,9.294894076788719,25.638936869694188
In2Te5,2,bottom-up,C2/m,2/m,monoclinic,1.2663,False,4.35095,8.622010669819193,24.107588011564097
GaF,2,bottom-up,P4mm,4mm,tetragonal,2.2382999999999997,False,3.91215883,3.91215883,22.485034
CrF4,2,bottom-up,P1,1,triclinic,1.8209999999999988,True,4.743772265858681,4.956798722468868,22.737825829009797
Tc2F7,2,bottom-up,P2_1,2,monoclinic,0.0,False,5.1733275,7.61474804098739,31.32683916600987
P2Pd,2,bottom-up,P4/mmm,4/mmm,tetragonal,0.0,False,2.7619471,2.7619471,23.530469
Ag2Te,2,bottom-up,P2_1,2,monoclinic,1.4891999999999999,True,5.79025706,5.789437845990267,22.549895380383546
Sc7F10,2,bottom-up,C2/m,2/m,monoclinic,0.0,False,3.244086063946115,13.849437996745786,26.845222609130925
Al3Co,2,bottom-up,P-6m2,-6m2,hexagonal,0.0,False,3.921921,3.921921061522019,25.130912
Re3F8,2,bottom-up,P1,1,triclinic,0.43610000000000015,False,5.697691062537965,5.654073785489362,22.386756677172556
YI2,2,bottom-up,P4/mmm,4/mmm,tetragonal,0.0,False,3.778864,3.778864,23.801584
ScSi3,2,bottom-up,P6/mmm,6/mmm,hexagonal,0.0,False,5.203064980000001,5.203065174449482,20.0
Y2F3,2,bottom-up,C2/m,2/m,monoclinic,0.9618000000000001,False,3.56631428,8.478147708987818,25.496824731317467
TePb,2,bottom-up,P3m1,3m,trigonal,1.6201999999999999,True,4.27878157,4.278785226777364,21.52928781537426
GeF4,2,bottom-up,P4/mmm,4/mmm,tetragonal,4.2531,False,3.822188095136083,3.822172,23.818262015060064
Sc7I10,2,bottom-up,P-1,-1,triclinic,0.0,False,3.8899645539543157,17.07263948682564,26.840038434558792
HgCl2,2,bottom-up,P-4m2,-42m,tetragonal,2.4475999999999996,True,7.885794,7.885794,26.75385
PtSe,2,bottom-up,P3m1,3m,trigonal,0.0,False,3.831899,3.831897988992139,21.231711
TaBr5,2,bottom-up,P1,1,triclinic,0.41290000000000004,False,7.491043610465635,7.366652800112817,25.16780434035478
TePd,2,bottom-up,P3m1,3m,trigonal,0.0,False,3.93261766,3.9326171257218214,21.231711
Sc5Br8,2,bottom-up,P2/m,2/m,monoclinic,0.0,False,3.67041245,13.89565313016272,25.194166427969535
GaSe,2,bottom-up,P-1,-1,triclinic,1.8295,False,3.7965178033843956,11.353746783017304,25.599550331093027
ZrCl2,2,bottom-up,P2_1/m,2/m,monoclinic,0.6154000000000002,True,3.334307,6.202406163661487,24.424386905669547
CuSe,2,bottom-up,P-1,-1,triclinic,0.0,False,3.6181726374138097,6.043697299163815,25.31542291192557
In4Te3,2,bottom-up,Pmn2_1,mm2,orthorhombic,0.9454999999999998,False,4.35456108,12.76219968,30.194773
YS3,2,bottom-up,P4/nmm,4/mmm,tetragonal,0.0,False,3.69887465,3.69874408,29.216602
TeAu,2,bottom-up,P-1,-1,triclinic,0.0,False,4.097717852872395,6.77012504379976,25.301716286606165
SbBr3,2,bottom-up,P2_1/c,2/m,monoclinic,2.6705,False,8.227581418675115,9.997345,24.86906988126641
Fe4Se5,2,bottom-up,P2/c,2/m,monoclinic,0.2705000000000002,False,8.256228117860326,8.228787271603075,22.534940512903557
Tl2Te5,2,bottom-up,C2/m,2/m,monoclinic,0.4666999999999999,False,4.41614505,8.55078580586925,24.10561366429424
NbBr4,2,bottom-up,P4/mmm,4/mmm,tetragonal,0.0,False,5.231293,5.231293,23.812503
MgI2,2,bottom-up,P-4m2,-42m,tetragonal,3.5367999999999995,False,4.32620357,4.32620357,22.656191
HgCl2,2,bottom-up,P-4m2,-42m,tetragonal,2.4503000000000004,True,3.93015957,3.93015957,23.537958
TlBr,2,bottom-up,P4mm,4mm,tetragonal,1.8209,True,4.62854518,4.62854518,22.485034
TeBr,2,bottom-up,P-1,-1,triclinic,0.7761999999999998,True,7.888224381999195,9.39380596736872,25.161319682360322
YBr2,2,bottom-up,P-6m2,-6m2,hexagonal,0.3369,False,3.8505091800000004,3.850509475206794,23.825805
GaSe,2,bottom-up,C2/m,2/m,monoclinic,1.6545,False,3.802963323623495,5.302963743950321,23.43835788524276
Al4Se3,2,bottom-up,Pmn2_1,mm2,orthorhombic,0.8717000000000001,False,3.75546895,11.39903179,30.194773
Re2F5,2,bottom-up,P2/c,2/m,monoclinic,0.0,False,4.963326,5.547770725202151,25.162240764457366
Ga4Se3,2,bottom-up,Pmn2_1,mm2,orthorhombic,1.2488000000000001,False,3.80838072,11.18759527,30.194773
Tl2Se,2,bottom-up,P3,3,trigonal,1.2866999999999997,False,12.687018630000058,12.687018734421963,23.381968
LaMg5,2,bottom-up,P1,1,triclinic,0.0,False,3.17786763332418,6.609787017425873,25.3528595928763
TlBr,2,bottom-up,Pbcm,mmm,orthorhombic,3.0791999999999997,False,6.49422518,6.541078,23.094001
AlBr3,2,bottom-up,C2/m,2/m,monoclinic,3.9121000000000006,False,6.3708235066223615,6.370822930051206,22.72368249481663
TaI5,2,bottom-up,P-1,-1,triclinic,1.0781,False,7.546418374229787,7.502622455270683,29.934847559012894
Tl2Te5,2,bottom-up,P1,1,triclinic,0.4689000000000001,False,4.41696424757842,8.575625637188578,24.092889409835138
As4I,2,bottom-up,P2/m,2/m,monoclinic,0.0,False,3.69867105,11.27134344716996,33.7890356457803
ZrI,2,bottom-up,C2/m,2/m,monoclinic,0.0,False,3.6889047350828537,3.6950685390044855,25.899122498525948
TiCl4,2,bottom-up,P1,1,triclinic,2.3733000000000004,False,5.958223897025438,7.12066864909153,23.180908913265007
SeI,2,bottom-up,P-1,-1,triclinic,0.6757999999999997,False,7.739966927366893,9.538945891283456,25.149055142623787
RhF4,2,bottom-up,P4/mbm,4/mmm,tetragonal,0.17929999999999957,False,5.575476020047499,5.575474239690609,22.430887564592012
NbF4,2,bottom-up,P2_1/c,2/m,monoclinic,0.42669999999999986,True,5.080278,10.243995552480731,24.49054164499873
AsC,2,bottom-up,C2/m,2/m,monoclinic,1.5154999999999998,False,3.1235000122174594,8.980110896676592,24.954259128906077
AsF3,2,bottom-up,Pmn2_1,mm2,orthorhombic,5.5435,False,5.031564,6.9878,23.123083
Ag2Te,2,bottom-up,Pmma,mmm,orthorhombic,0.40920000000000023,False,4.861663,5.888964,23.070339
NiSe,2,bottom-up,P-3m1,-3m,trigonal,0.0,False,3.718665,3.718664939820876,23.678874
MnI4,2,bottom-up,P2_1/c,2/m,monoclinic,0.0,False,6.409471,7.611522758774226,23.07415354150583
HfI2,2,bottom-up,P2_1/m,2/m,monoclinic,0.6316999999999999,False,3.700204,6.781547274327666,24.412603333181533
AgTe2,2,bottom-up,C2/m,2/m,monoclinic,0.0,False,3.13538,3.7697016235864083,22.95445677462843
TaTe3,2,bottom-up,P2_1/m,2/m,monoclinic,0.0,False,3.72379327,13.452102467198095,27.00956068506653
CaCl2,2,bottom-up,P-4m2,-42m,tetragonal,5.6388,True,4.38394608,4.38394608,22.656191
GaBi,2,bottom-up,P4/nmm,4/mmm,tetragonal,0.0,False,4.34760621,4.34760621,23.942319
As9I2,2,bottom-up,P2_1/m,2/m,monoclinic,0.0,False,3.700882,11.345201446793487,35.052510339859715
Ta2S3,2,bottom-up,C2/m,2/m,monoclinic,0.024399999999999977,True,3.2360550697134314,9.865802929905351,24.97272740015187
AgSe,2,bottom-up,P2/m,2/m,monoclinic,0.7203000000000004,False,3.719967,5.581544750050831,22.59032686206583
TiAg,2,bottom-up,P4/nmm,4/mmm,tetragonal,0.0,False,2.846949,2.846949,24.42588
TaF4,2,bottom-up,P4/mmm,4/mmm,tetragonal,0.0,False,4.112329,4.112329,23.812503
Sr2Hg,2,bottom-up,P4/mmm,4/mmm,tetragonal,0.0,False,3.92158684,3.92158684,23.983674
GaP5,2,bottom-up,Pmc2_1,mm2,orthorhombic,1.095,True,6.48566164,12.0051125,26.806861
ReF3,2,bottom-up,C2/m,2/m,monoclinic,0.0,False,4.640635317638955,4.640635790257838,22.061106250951177
Ca5Sc,2,bottom-up,P1,1,triclinic,0.0,False,3.755661622983913,7.187877541365375,25.352481391233344
Bi2Pt,2,bottom-up,P2_1/m,2/m,monoclinic,0.0,False,3.9618066751639733,6.008167735654625,24.541892789299204
BAs,2,bottom-up,P-6m2,-6m2,hexagonal,0.6511,True,3.385975,3.38597666458409,20.0
GaSe,2,bottom-up,P-3m1,-3m,trigonal,1.6296,False,3.824934,3.824933489782012,24.623155
B2Te3,2,bottom-up,P-62m,-6m2,hexagonal,0.9020999999999999,True,6.454601,6.4546017373190425,20.011829
InCl3,2,bottom-up,C2/m,2/m,monoclinic,3.8467000000000002,False,6.4460876879328675,6.4460870864276725,22.723867144070066
ScBr2,2,bottom-up,P-6m2,-6m2,hexagonal,0.1257999999999999,False,3.6762541900000003,3.676254435059974,23.825805
Ru4S5,2,bottom-up,P4/n,4/m,tetragonal,0.0,False,8.358184651727326,8.343321355037657,22.53527336152665
Mg2Hg,2,bottom-up,P4/mmm,4/mmm,tetragonal,0.0,False,3.29676744,3.29676744,23.983674
InF3,2,bottom-up,Pmc2_1,mm2,orthorhombic,4.1775,False,4.642418,5.575346,22.61305
BP5,2,bottom-up,Pmc2_1,mm2,orthorhombic,0.0,False,6.35136515,11.46455858,26.806861
PtS,2,bottom-up,P3m1,3m,trigonal,0.0,False,3.6721919,3.672191490394721,21.231711
GaTe,2,bottom-up,P-3m1,-3m,trigonal,1.3756,False,4.15172,4.151720009179931,24.623155
CI2,2,bottom-up,P-3m1,-3m,trigonal,1.3467,False,3.778738,3.7787379114527115,23.73272
Y7Cl10,2,bottom-up,P-1,-1,triclinic,0.0,False,3.819452016804732,16.855855202974915,26.852335409656714
AlTe,2,bottom-up,P-1,-1,triclinic,1.8858,False,4.116802919295141,12.107084192464056,25.592963420708926
HfAu,2,bottom-up,P4/nmm,4/mmm,tetragonal,0.0,False,3.20471,3.20471,24.42588
TaF4,2,bottom-up,P2_1/c,2/m,monoclinic,0.38969999999999994,True,4.98621069,10.43531408627547,24.496283149515023
CrCl2,2,bottom-up,P2_1/c,2/m,monoclinic,0.5042,False,3.81165655,6.2558287853052175,21.575579918336643
CrCl2,2,bottom-up,C2/m,2/m,monoclinic,0.6023000000000001,False,3.445452,3.849114209873877,23.244640631697557
VF4,2,bottom-up,P4/mmm,4/mmm,tetragonal,1.9863,False,3.89603,3.89603,23.812503
AuSe2,2,bottom-up,P-3m1,-3m,trigonal,0.0,False,3.772028,3.771626961203348,23.0098718951158
Te4W3,2,bottom-up,P-3m1,-3m,trigonal,0.0,False,4.37310486,4.371032854618212,29.268619390219936
PF3,2,bottom-up,Pmn2_1,mm2,orthorhombic,5.930000000000001,True,4.94899157,7.55385422,23.123083
ZrSi2,2,bottom-up,P4/nmm,4/mmm,tetragonal,0.0,False,3.710187,3.704589,25.781726
CuI,2,bottom-up,P-6m2,-6m2,hexagonal,1.4754,True,4.3724966,4.372496591127676,20.0
VCl4,2,bottom-up,P2_1/c,2/m,monoclinic,0.11459999999999981,False,6.07840273,11.157822824120572,24.485321353322643
AsPb,2,bottom-up,P-1,-1,triclinic,0.4742000000000002,True,4.205433075253462,12.667930872649366,24.9495125937333
InS,2,bottom-up,P-3m1,-3m,trigonal,1.6879,False,3.907998,3.9079970272031934,24.623155
ZrPb2,2,bottom-up,Pmmn,mmm,orthorhombic,0.0,False,4.132868,4.369633,25.781726
SiI2,2,bottom-up,P-3m1,-3m,trigonal,1.6557,False,4.19334162,4.193342018660432,23.73272
CaCu,2,bottom-up,P6/mmm,6/mmm,hexagonal,0.0,False,4.14827405,4.148273888682844,24.159589
BaC2,2,bottom-up,P-3m1,-3m,trigonal,0.4971000000000001,False,4.56194124,4.56194113225615,24.445951
Bi2Pt,2,bottom-up,P4/mmm,4/mmm,tetragonal,0.0,False,3.36816736,3.36816736,23.530469
NbTe2,2,bottom-up,C2/m,2/m,monoclinic,0.0,False,10.88683849,11.195927164572174,24.476925586729156
RuCl4,2,bottom-up,P2_1/c,2/m,monoclinic,0.05510000000000037,False,5.853872112702155,6.251573171455406,23.36855758055317
Bi4Br,2,bottom-up,P2/m,2/m,monoclinic,0.0,False,4.41958353,13.16756433032785,33.723342229775
Sb2Te3,2,bottom-up,P2_1/m,2/m,monoclinic,0.6849000000000001,False,4.29451287,10.741491107042652,26.225039472957945
ReI3,2,bottom-up,P-3m1,-3m,trigonal,0.9912999999999998,False,11.31446958,11.31446876019763,26.856058
TiI3,2,bottom-up,P-1,-1,triclinic,0.7620000000000001,False,7.120447554830438,10.058974014552648,23.53967955496585