Formula,No. of Elements,Discovery Process,Space Group,Point Group,Crystal System,Band Gap,Is Gap Direct?,a,b,c
Si2O3,2,bottom-up,P2_1/m,2/m,monoclinic,2.9012,False,5.916238987164237,3.42797096,25.492456709271504
KCa,2,bottom-up,P2_1/m,2/m,monoclinic,0.0,False,3.894272963454539,3.75573,25.928135660878663
Pt3S4,2,bottom-up,P2/m,2/m,monoclinic,0.0,False,4.371392,7.351512848955989,25.182070849280702
SnBr4,2,bottom-up,Pmmn,mmm,orthorhombic,0.0,False,7.766476861070919,5.770455735629466,22.402416598281558
Ge3W,2,bottom-up,P6/mmm,6/mmm,hexagonal,0.0,False,5.279657,5.27965581013005,20.0
BiCl3,2,bottom-up,P-6m2,-6m2,hexagonal,1.6893000000000002,True,4.94188933,4.941888498975463,24.623946
BI3,2,bottom-up,P1,1,triclinic,2.4847,False,5.6903194873832,9.48623775898591,23.161312540074864
CaI2,2,bottom-up,P-1,-1,triclinic,4.0603,True,8.922490291728762,8.979435719720644,23.508725966004366
GaTe,2,bottom-up,P3m1,3m,trigonal,0.0,False,4.2210296,4.221029614093639,21.250951
Rb2F,2,bottom-up,P-3m1,-3m,trigonal,0.0,False,4.2004315,4.200431088684694,23.407847
Tl2Se3,2,bottom-up,P1,1,triclinic,0.0,False,4.228914217673965,7.037842658496068,29.673870480157827
VTe2,2,bottom-up,Pmmm,mmm,orthorhombic,0.0,False,3.6017759453587614,3.147406,23.44302957336754
TaTe2,2,bottom-up,P6/mmm,6/mmm,hexagonal,0.0,False,3.17997,3.1799701703710994,24.827437
AsI5,2,bottom-up,Pmma,mmm,orthorhombic,0.0,False,3.620282,20.329117,23.858436
Tl2O3,2,bottom-up,P1,1,triclinic,0.8277000000000001,False,3.509938771477229,6.087217377573176,22.922043451220958
BiAs,2,bottom-up,P1,1,triclinic,0.5035000000000001,True,4.21363402193724,4.574962298887828,22.476719351685645
Bi4Pb3,2,bottom-up,C2/m,2/m,monoclinic,0.0,False,5.103592207539509,5.103591668593991,27.827904555812427
BP,2,bottom-up,P4/mbm,4/mmm,tetragonal,0.7578999999999998,False,6.342254,6.342254,20.0
HfO2,2,bottom-up,Pmm2,mm2,orthorhombic,2.8522999999999996,True,6.739085,6.766047449433679,22.032772
CCl4,2,bottom-up,P1,1,triclinic,0.43999999999999995,False,6.326850316173206,6.46559451029246,22.582571012609414
BiO2,2,bottom-up,P-1,-1,triclinic,0.35240000000000027,False,3.467729906226406,11.74100881510767,23.60853335206764
Sr2P,2,bottom-up,P-4m2,-42m,tetragonal,0.0,False,4.769522,4.806997,22.957399
PI5,2,bottom-up,Pmma,mmm,orthorhombic,0.0,False,3.53905674,20.21125502,23.858436
SbAs,2,bottom-up,P1,1,triclinic,0.24750000000000005,True,4.065875983075621,4.521854686886186,22.4772846870017
TlTe,2,bottom-up,P3m1,3m,trigonal,0.0,False,4.61326881,4.613268830063074,21.250951
NaSr,2,bottom-up,P2_1/m,2/m,monoclinic,0.0,False,3.856978055499538,3.772311,26.122820306263506
HfO2,2,bottom-up,P2_1/m,2/m,monoclinic,0.36460000000000026,False,4.079321,6.722760273853665,28.95350578169236
AsSe,2,bottom-up,Pmc2_1,mm2,orthorhombic,0.0,False,5.70702602,14.37222258,23.134393
NbI4,2,bottom-up,P1,1,triclinic,0.0,False,7.435345138295461,7.427014665707489,22.912659489220463
AgO2,2,bottom-up,P-3m1,2/m,trigonal,0.0,False,3.2586676326863806,5.649271436287524,21.92104859656204
TeC,2,bottom-up,Pbcm,mmm,orthorhombic,0.031199999999999894,False,3.63169311,10.80537654,22.971359
BiSb,2,bottom-up,P1,1,triclinic,0.4838,True,4.473348547940735,4.797529332125665,22.475334658418333
SiI2,2,bottom-up,P-6m2,-6m2,hexagonal,1.5122,False,4.068767,4.068767825364066,23.838
Sn3Mo,2,bottom-up,P6/mmm,6/mmm,hexagonal,0.0,False,5.77682454,5.7768241893936425,20.0
HfO2,2,bottom-up,P6/mmm,6/mmm,hexagonal,0.0,False,3.45906834,3.459067573964504,23.425704
SiSn,2,bottom-up,P3m1,3m,trigonal,0.3168000000000002,True,4.26630396,4.266303209368777,20.769747
TlS,2,bottom-up,P3m1,3m,trigonal,0.10870000000000024,False,4.30076658,4.300766602493175,21.250951
CF4,2,bottom-up,C2,2,monoclinic,9.2199,True,5.656964134406348,5.651344588560641,21.918698597972337
SnPb,2,bottom-up,P3m1,3m,trigonal,0.0,False,4.799547380000001,4.799546337169271,20.769747
CrSb2,2,bottom-up,P2/m,2/m,monoclinic,0.0,False,4.4996486991933695,4.501004832696189,22.890756019032118
PbO2,2,bottom-up,P3m1,3m,trigonal,1.2607,False,6.8251553,6.825155720391251,22.029164
TeP,2,bottom-up,Pc,m,monoclinic,0.0,False,5.824475301185507,18.167785581782084,23.120845
BiBr3,2,bottom-up,P-6m2,-6m2,hexagonal,1.2515,True,5.20467606,5.2046751277854275,24.623946
I5N,2,bottom-up,Pmma,mmm,orthorhombic,0.0,False,4.05975951,12.90779923,23.858436
SiF4,2,bottom-up,P1,1,triclinic,7.874600000000001,False,5.867307426942256,5.80044984582193,22.249047598593766
Nb2Cl5,2,bottom-up,Cm,m,monoclinic,0.0,False,5.733176577715447,5.737977434563246,24.913893755669367
TaF4,2,bottom-up,P1,1,triclinic,1.8909999999999996,True,5.6617574890114195,5.211905411795579,22.51494355697973
ErS3,2,bottom-up,Pmma,mmm,orthorhombic,0.0,False,3.57017506,3.58526648,30.429941
CI4,2,bottom-up,P1,1,triclinic,0.6322000000000001,False,8.187077307800063,6.724538764034682,22.347617690012026
Na2Br,2,bottom-up,P-3m1,-3m,trigonal,0.0,False,4.05831059,4.058310212179284,23.407847
RhPb3,2,bottom-up,P-6m2,-6m2,hexagonal,0.0,False,4.43424223,4.4342425760825,24.981638
NCl4,2,bottom-up,P1,1,triclinic,1.1717000000000004,True,6.13842446634232,6.898093566855556,22.49426030604603
BSe,2,bottom-up,P3m1,3m,trigonal,0.7440000000000002,False,3.2677452,3.267745203208918,21.250951
Mg2Bi,2,bottom-up,P-4m2,-42m,tetragonal,0.0,False,5.018379,4.989447,22.957399
NbF5,2,bottom-up,Pmma,mmm,orthorhombic,3.054800000000001,True,3.658045,8.421913,23.595189
RbSr,2,bottom-up,P2_1/m,2/m,monoclinic,0.0,False,4.213016173916261,4.075337,26.14661704650917
SiTe,2,bottom-up,Pbcm,mmm,orthorhombic,0.0,False,3.87692219,9.1725574,22.971359
B2Te3,2,bottom-up,P1,1,triclinic,0.0,False,3.582240053021852,6.512730532863539,29.440056806131572
BiO2,2,bottom-up,P2_1/m,2/m,monoclinic,0.6084999999999998,False,3.42891542,11.147314226414643,22.775404391218803
LiCa,2,bottom-up,P2_1/m,2/m,monoclinic,0.0,False,3.5392985298330544,3.3834591,26.18731540656486
BiP,2,bottom-up,P1,1,triclinic,0.5717,False,4.102728170168948,4.3828442354987525,22.478157484464905
ZnSe,2,bottom-up,P3m1,3m,trigonal,0.0,False,4.01677683,4.016777053904984,56.550342
Pb3N4,2,bottom-up,P3m1,3m,trigonal,0.3201000000000003,True,6.943659190001955,6.9436435207438025,20.011135000021003
PrTe3,2,bottom-up,P6/mmm,6/mmm,hexagonal,0.0,False,6.460686,6.460685946415137,20.0
NbF4,2,bottom-up,Pc,m,monoclinic,0.23019999999999996,True,5.1928784243178505,5.264647373655494,22.713020990343832
I3N,2,bottom-up,P-6m2,-6m2,hexagonal,0.0,False,4.19576537,4.195764822996052,24.623946
ZrBr4,2,bottom-up,P4/mmm,4/mmm,tetragonal,0.9912000000000001,False,5.38758608,5.38758608,23.891423
PF3,2,bottom-up,P-6m2,-6m2,hexagonal,1.7745999999999995,False,3.84472,3.8447198350757628,24.623946
AuBr2,2,bottom-up,P-4m2,-42m,tetragonal,0.0,False,3.86103801,3.86103801,23.530221
MoSe,2,bottom-up,P4/nmm,4/mmm,tetragonal,0.0,False,3.810585,3.810585,23.354627
K2I,2,bottom-up,P-3m1,-3m,trigonal,0.0,False,4.705117,4.705116880096073,23.407847
BaF2,2,bottom-up,P-1,-1,triclinic,5.7246999999999995,True,7.865298379896099,7.929098685796455,23.52113898531289
Sb2O3,2,bottom-up,P1,1,triclinic,1.3295,True,3.8725301638195817,3.2810873593242165,38.345937619376905
NbCl5,2,bottom-up,Pmmm,mmm,orthorhombic,0.0,False,4.433098,6.180356,23.745806
Tl2Te3,2,bottom-up,P1,1,triclinic,0.10629999999999984,False,4.482528427787163,8.193905032798256,29.529567341824453
MoS,2,bottom-up,P4/nmm,4/mmm,tetragonal,0.0,False,3.758046,3.758046,23.354627
MoAs,2,bottom-up,C2/m,2/m,monoclinic,0.02839999999999998,False,3.2855539790612176,3.285662131671332,23.641631174733334
SbI3,2,bottom-up,P-6m2,-6m2,hexagonal,0.5800000000000001,True,5.390643,5.390641207840214,24.623946
CrN2,2,bottom-up,C2/m,2/m,monoclinic,0.27120000000000033,False,3.395176693011867,5.114624822364783,22.673037560189375
TeP,2,bottom-up,Pmc2_1,mm2,orthorhombic,0.0,False,5.83431619,14.78363385,23.134393
AlAs,2,bottom-up,P4/mbm,4/mmm,tetragonal,1.0785,False,8.05459496,8.05459496,20.0
AuI2,2,bottom-up,P-4m2,-42m,tetragonal,0.0,False,4.04908485,4.04908485,23.530221
Ni3S4,2,bottom-up,P2/m,2/m,monoclinic,0.0,False,2.658925,7.020879565595254,25.16106757484883
PPd,2,bottom-up,P-6m2,-6m2,hexagonal,0.0,False,3.900494,3.9025259660299505,20.0
AlTe,2,bottom-up,P3m1,3m,trigonal,0.39970000000000017,False,4.14500289,4.145002908521543,21.250951
InSe,2,bottom-up,P3m1,3m,trigonal,0.18339999999999979,False,4.16777595,4.167775964836251,21.250951
Cd3As,2,bottom-up,P6/mmm,6/mmm,hexagonal,0.0,False,5.75469668,5.754696397715585,20.0
Ge3Bi4,2,bottom-up,C2,2,monoclinic,0.0,False,4.500242673405958,4.500243288404416,27.831195825048805
BiTe,2,bottom-up,Pc,m,monoclinic,0.0,False,6.482809540527229,20.15099863568152,23.120845
BAs,2,bottom-up,P4/mbm,4/mmm,tetragonal,0.6152000000000002,False,6.695296,6.70484778121808,19.991146951683287
PCl4,2,bottom-up,P1,1,triclinic,1.9237000000000002,False,5.9120395780829105,6.979779972071673,22.620751276500215
SiSe,2,bottom-up,Pbcm,mmm,orthorhombic,0.0,False,3.556574,8.604517,22.971359
OsS2,2,bottom-up,P-3m1,-3m,trigonal,0.0,False,3.41068821,3.4106879440134414,22.670328
NiI2,2,bottom-up,P-1,-1,triclinic,0.0,False,4.8393553531626505,4.55302165334649,24.989174360763986
AlI3,2,bottom-up,P-1,-1,triclinic,2.8818,False,7.623890683141122,8.033648657031062,23.231077202173687
PtN,2,bottom-up,P-6m2,-6m2,hexagonal,0.0,False,3.37380664,3.37455322672125,20.0
Cd3Ag,2,bottom-up,P6/mmm,6/mmm,hexagonal,0.0,False,5.78639848,5.786398366157266,20.0
Bi6Au,2,bottom-up,Pmn2_1,mm2,orthorhombic,0.0,False,3.49058761,11.18092075,29.060994
ZrAs2,2,bottom-up,P-3m1,-3m,trigonal,0.0,False,3.104147,3.1041471122316353,21.950498
AsF5,2,bottom-up,Pmma,mmm,orthorhombic,0.4383999999999997,False,3.477145,8.486038,23.858436
BiI5,2,bottom-up,Pmma,mmm,orthorhombic,0.0,False,6.95201828,11.51936018,23.858436
Hg3N,2,bottom-up,P6/mmm,6/mmm,hexagonal,0.04380000000000006,False,6.28678468,6.286784289420103,20.0
Ga2Se3,2,bottom-up,P1,1,triclinic,0.0,False,3.858364521939832,6.787707074719499,29.441034572508514
Ge3Sb4,2,bottom-up,C2,2,monoclinic,0.0,False,4.633888413495581,4.633888366806267,27.843220043847523
CdSe,2,bottom-up,P4/nmm,4/mmm,tetragonal,2.0653999999999995,True,4.495195,4.495195,22.990012
N2O3,2,bottom-up,Pmmn,mmm,orthorhombic,2.7509,True,2.252381,13.316522,21.157874
PbF2,2,bottom-up,P-6m2,-6m2,hexagonal,3.5462,False,3.722898,3.7228977889511015,23.838
CaI2,2,bottom-up,C2,2,monoclinic,3.6193999999999997,True,4.468556,9.858194762453977,24.632547776752627
CrTe,2,bottom-up,P4/nmm,4/mmm,tetragonal,0.0,False,3.62472489,3.62472489,23.354627
Sn3Sb4,2,bottom-up,C2,2,monoclinic,0.0,False,4.901008192925003,4.901007566574346,27.842792462211793
SbPd,2,bottom-up,P-6m2,-6m2,hexagonal,0.0,False,4.38102342,4.381538934939108,20.0
Sn3N4,2,bottom-up,R-3m,-3m,trigonal,0.30340000000000006,False,3.37319384771052,3.3731938451476142,28.176922441932835
Mg2Sb,2,bottom-up,P-4m2,-42m,tetragonal,0.0,False,4.792205,4.789526,22.957399
LuBi2,2,bottom-up,C222,222,orthorhombic,0.0,False,3.41594,3.5087174883579615,25.031709
Cd3Au,2,bottom-up,P6/mmm,6/mmm,hexagonal,0.0,False,5.75066607,5.750665954152583,20.0
PO2,2,bottom-up,P-1,-1,triclinic,1.8357,False,3.0366347711493065,9.931210393383376,24.12206952505628
ZrSb2,2,bottom-up,P-3m1,-3m,trigonal,0.0,False,3.299069,3.2990696285936436,21.950498
Sn2O5,2,bottom-up,Pnc2,mm2,orthorhombic,0.0,False,3.83665891,6.62042498,24.876722
TaO2,2,bottom-up,Pm,m,monoclinic,0.6955,False,5.3300524665735365,6.228507658725875,21.99889817896387
SbCl5,2,bottom-up,Pmma,mmm,orthorhombic,0.2522000000000002,True,3.81393107,12.81747151,23.858436
Sb4C3,2,bottom-up,C2,2,monoclinic,0.0,False,3.4387634136565994,3.438763403949011,28.085895913410486
Ca2Sb,2,bottom-up,Pmm2,mm2,orthorhombic,0.0,False,4.93059399,5.1067139,22.957399
PrSe3,2,bottom-up,P6/mmm,6/mmm,hexagonal,0.0,False,5.92097632,5.920976278148371,20.0
AuSe2,2,bottom-up,P-4m2,mm2,tetragonal,0.0,False,2.890742,5.756655157722755,22.829426914160592
BF3,2,bottom-up,P2_1,2,monoclinic,8.4145,False,3.4967995918805737,6.104410419869921,22.956578162254527
CaBr2,2,bottom-up,Pmma,mmm,orthorhombic,2.7998000000000003,True,4.092595,7.344858,23.548695
AgS2,2,bottom-up,Pm,m,monoclinic,0.0,False,3.28676,5.64624749337487,22.89072458016382
TaS2,2,bottom-up,Pmmm,mmm,orthorhombic,0.0,False,3.3333749881946684,3.43231727,23.445355580719127
YSe,2,bottom-up,P4/nmm,4/mmm,tetragonal,0.0,False,3.945892090905807,3.9458930054821555,23.289565
MgBr2,2,bottom-up,P-1,-1,triclinic,4.3256,True,7.43026571658513,7.458918259950885,23.508904259816013
Rb2I,2,bottom-up,P-3m1,-3m,trigonal,0.0,False,4.966419,4.966418732820059,23.407847
Te2Au,2,bottom-up,P-4m2,mm2,tetragonal,0.0,False,3.250544,6.394734673467852,22.825444509654485
TeAu2,2,bottom-up,P6/mmm,6/mmm,hexagonal,0.0,False,4.822659,4.822657704023477,24.537695
InS,2,bottom-up,P3m1,3m,trigonal,0.15690000000000026,False,3.99426412,3.9942641396200695,21.250951
Fe3Te4,2,bottom-up,P-3m1,-3m,trigonal,0.0,False,3.8275291,3.827528290851545,27.542022
SnTe,2,bottom-up,Pbcm,mmm,orthorhombic,0.4036000000000002,False,4.30248759,12.00020574,22.971359
Fe3Se4,2,bottom-up,P2_1/m,2/m,monoclinic,0.0,False,3.48079164,5.762246988781819,28.10595890746858
V2I5,2,bottom-up,Cm,m,monoclinic,0.0,False,6.579605549843243,6.593193676976052,24.91274156454249
SnS,2,bottom-up,Pbcm,mmm,orthorhombic,0.6608,False,3.83903739,12.22965963,22.971359
TaCl5,2,bottom-up,Pmma,mmm,orthorhombic,0.19709999999999983,True,4.398112,11.119788,23.595189
As2O3,2,bottom-up,Pm,m,monoclinic,2.4692999999999996,False,2.9025378574378666,3.9790705911596995,24.64074955769613
Te2Ru,2,bottom-up,Pcca,mmm,orthorhombic,0.0,False,6.550903871617852,6.525314237127784,22.948977179144382
CCl2,2,bottom-up,P-6m2,-6m2,hexagonal,1.6915999999999998,False,3.224218,3.2242182638441212,23.838
Li2I,2,bottom-up,P-3m1,-3m,trigonal,0.0,False,3.98623225,3.986231893872888,23.407847
Sn2O3,2,bottom-up,Pmmn,mmm,orthorhombic,2.0244,False,4.475590115551502,4.50425377,25.527089961347944
SnSe,2,bottom-up,Pbcm,mmm,orthorhombic,0.5535000000000001,False,4.01678741,11.97055208,22.971359
V2Cl5,2,bottom-up,Cm,m,monoclinic,0.0,False,5.795985319389687,5.806308649323989,24.911606046083314
AsSe,2,bottom-up,C2/m,2/m,monoclinic,0.0,False,4.178448643768703,4.178448662645393,23.288772871053414
PO2,2,bottom-up,P2_1/m,2/m,monoclinic,3.3097,False,2.705883,9.527348929949508,22.775278202006884
SeN,2,bottom-up,Aem2,mm2,orthorhombic,0.0,False,3.1480652637668545,3.1480652577460977,23.27419467290137
B13Sb2,2,bottom-up,P-3m1,-3m,trigonal,0.0,False,4.95898403,4.958983631584833,25.085618
ZnS,2,bottom-up,P4/nmm,4/mmm,tetragonal,2.755,True,3.993441,3.993441,22.990012
SrBr2,2,bottom-up,Pmma,mmm,orthorhombic,2.9781000000000004,True,4.310607,7.933913,23.548695
VBr5,2,bottom-up,Pmma,mmm,orthorhombic,0.0,False,3.35802217,13.07288515,23.595189
P4Pb3,2,bottom-up,C2,2,monoclinic,0.0,False,4.595586940161626,4.595586908233726,27.863350853803905
InN,2,bottom-up,P4/mbm,4/mmm,tetragonal,0.6341000000000001,False,7.04525,7.04525,20.0
BTe,2,bottom-up,P3m1,3m,trigonal,0.0,False,3.6214623,3.621462316759651,21.250951
HgSe,2,bottom-up,P3m1,3m,trigonal,0.0,False,4.35186675,4.351866579827679,56.585656
AsN,2,bottom-up,P1,1,triclinic,1.8399,True,2.9773666938034666,4.019751125361859,22.480226349860764
NiN,2,bottom-up,P-6m2,-6m2,hexagonal,0.0,False,3.070818,3.072060485173103,20.0
Be2Bi,2,bottom-up,P-4m2,-42m,tetragonal,0.0,False,4.363154,4.358066,22.957399
AsO2,2,bottom-up,P1,1,triclinic,0.9950999999999999,False,5.711251080504837,7.087748309586987,33.358066480554264
SbCl5,2,bottom-up,Pmmm,mmm,orthorhombic,0.01580000000000048,False,6.101981,5.061911,23.758606
OsO3,2,bottom-up,C2/m,2/m,monoclinic,0.6292,False,2.9872887378445694,8.297932416372044,23.183064799906806
CaI2,2,bottom-up,Pmma,mmm,orthorhombic,2.0254000000000003,True,4.38042,7.708694,23.548695
AsCl5,2,bottom-up,Pmma,mmm,orthorhombic,0.051899999999999835,True,3.590166,12.585564,23.858436
SiCl4,2,bottom-up,P1,1,triclinic,5.423,True,7.66451440683009,7.306771503837793,21.934487949055935
SbSe,2,bottom-up,C2/m,2/m,monoclinic,0.0,False,4.152979805350611,4.152979342676893,23.273857916742767
Sn3W,2,bottom-up,P6/mmm,6/mmm,hexagonal,0.0,False,5.84307745,5.843077085518707,20.0
PbSe,2,bottom-up,Pbcm,mmm,orthorhombic,1.1558000000000002,False,4.17907483,12.22170647,22.971359
Cr3O8,2,bottom-up,P-1,-1,triclinic,0.8853999999999997,False,4.650607954576814,4.918078312927676,25.603998032361126
BaNa,2,bottom-up,P2_1/m,2/m,monoclinic,0.0,False,3.917459032151453,3.793121,25.875339661142462
ErSe3,2,bottom-up,Pmma,mmm,orthorhombic,0.0,False,3.820091,3.851181,30.429941
GeCl4,2,bottom-up,P1,1,triclinic,3.8228999999999997,False,7.446059285155202,7.418626195685222,22.31291644267943
AsP,2,bottom-up,P1,1,triclinic,0.8461999999999998,False,3.5371217504322634,4.588469957718804,22.47997245307109
Sb2O3,2,bottom-up,P1,1,triclinic,1.936,False,4.340832831883302,3.2429521602669378,25.082088831098357
BiSe,2,bottom-up,Pc,m,monoclinic,0.0,False,6.06705468065382,19.04893329865032,23.120845
GaAs,2,bottom-up,P4/mbm,4/mmm,tetragonal,0.0,False,8.117196,8.117196,20.0
SbBr5,2,bottom-up,Pmma,mmm,orthorhombic,0.15739999999999998,False,4.00670087,13.7357395,23.858436
NbI5,2,bottom-up,Pmma,mmm,orthorhombic,0.0,False,3.69939218,20.13164609,23.595189
HfTe,2,bottom-up,P4/nmm,4/mmm,tetragonal,0.0,False,4.259816,4.259816,22.865869
Sb6Au,2,bottom-up,Pmn2_1,mm2,orthorhombic,0.0,False,3.405302,11.879184,29.060994
AuO2,2,bottom-up,P-1,-1,triclinic,0.0,False,3.4584379596032946,5.554744145660087,21.95299147210489
RbCa,2,bottom-up,P2_1/m,2/m,monoclinic,0.0,False,4.028846058265067,3.85732426,26.036357773986282
PtBr2,2,bottom-up,P-1,-1,triclinic,0.030899999999999928,True,4.863692195669253,4.599199685762513,24.880286779031824
Sr2Bi,2,bottom-up,Pmm2,mm2,orthorhombic,0.0,False,5.23428719,5.54883541,22.957399
Ba2P,2,bottom-up,P-4m2,-42m,tetragonal,0.0,False,4.93292699,4.93899458,22.957399
MgI2,2,bottom-up,P-1,-1,triclinic,3.2651000000000003,True,8.004169674640211,8.022462603268462,23.506215048097175
RuSe2,2,bottom-up,P-3m1,-3m,trigonal,0.0,False,3.470518,3.4705182145221483,22.670328
SiS,2,bottom-up,Pbcm,mmm,orthorhombic,0.0,False,3.323188,8.322917,22.971359
BeBr2,2,bottom-up,P-1,-1,triclinic,4.07,True,6.385604894710211,6.392051215439453,23.510963120909295
K2Br,2,bottom-up,P-3m1,-3m,trigonal,0.0,False,4.529458,4.529456899519963,23.407847
SbCl3,2,bottom-up,P-6m2,-6m2,hexagonal,1.3103000000000007,True,4.85970159,4.859700780579441,24.623946
Bi2B13,2,bottom-up,P-3m1,-3m,trigonal,0.0,False,4.993163,4.993161881171689,25.085618
In2O3,2,bottom-up,P1,1,triclinic,1.5804000000000005,False,3.3579191528632726,5.886855801377166,22.967869814775682
Fe3Te4,2,bottom-up,P2_1/m,2/m,monoclinic,0.0,False,3.81011095,6.306734630263693,28.10804176604301
Ge3P4,2,bottom-up,C2,2,monoclinic,0.0,False,4.08231656716561,4.082316532558081,27.846691144019594
H3Pd,2,bottom-up,P6/mmm,6/mmm,hexagonal,0.0,False,3.58002036,3.5800203099216383,20.0
SO3,2,bottom-up,P-6m2,-6m2,hexagonal,0.4624000000000006,False,3.415211,3.415210829731746,23.590867
PbBr2,2,bottom-up,P-6m2,-6m2,hexagonal,3.0114,False,4.22823947,4.228240399272399,23.838
AlBi,2,bottom-up,P4/mbm,4/mmm,tetragonal,0.0,False,9.120238,9.120238,20.0
NiF2,2,bottom-up,P2_1/m,2/m,monoclinic,4.1481,False,3.95862616882042,3.5377113901556263,24.91505089240823
HoP2,2,bottom-up,C222,222,orthorhombic,0.0,False,3.080952,3.4477282739939064,24.927071
AgBr2,2,bottom-up,P-4m2,-42m,tetragonal,0.0,False,3.639374,3.639374,23.530221
CaCl2,2,bottom-up,C2/m,2/m,monoclinic,5.4021,False,4.087725,8.565652064471507,24.65633496427693
TeAs,2,bottom-up,Pmma,mmm,orthorhombic,0.0,False,6.01613915,15.23354358,23.134393
VBr4,2,bottom-up,P-1,-1,triclinic,0.0035000000000002807,False,7.246675492188539,6.314684430414519,22.580458806091713
HoAs2,2,bottom-up,C222,222,orthorhombic,0.0,False,3.140943,3.3805443339706405,24.927071
Sn3Bi4,2,bottom-up,C2,2,monoclinic,0.0,False,4.540889392595794,4.540889053038072,27.808047722009004
Nb2O5,2,bottom-up,Pm,m,monoclinic,2.4345,False,3.15702203,6.028460378617226,23.890081335177566
Li2Br,2,bottom-up,P-3m1,-3m,trigonal,0.0,False,3.68132017,3.681319894749936,23.407847