Formula,No. of Elements,Discovery Process,Space Group,Point Group,Crystal System,Band Gap,Is Gap Direct?,a,b,c
TlCu3S2,3,top-down,C2/m,2/m,monoclinic,0.8786,False,3.83390337,7.420351969873287,27.03024
HfAl5Ni2,3,top-down,P4/mmm,4/mmm,tetragonal,0.0,False,4.12376605,4.12376605,26.980306
LaMg2,2,top-down,C2/m,2/m,monoclinic,0.0,False,3.30455639,6.240923368386779,26.035298
Ca(InN)2,3,top-down,P-3m1,-3m,trigonal,0.0,False,3.42489161,3.426018826553829,25.268015
GaCuS2,3,top-down,P3m1,3m,trigonal,0.0,False,3.3655897,3.365589458452313,24.770756
NaN3,2,top-down,P2/m,2/m,monoclinic,0.891,False,4.681581716362308,6.676033733291295,20.0
CaC2(SN)2,4,top-down,P2/c,2/m,monoclinic,3.8827999999999996,False,5.56617926,7.24391611,24.038687
Pr2BC,3,top-down,C2/m,2/m,monoclinic,0.0,False,3.64689817,7.41129842996102,23.476769
ZnSiO3,3,top-down,P-31m,-3m,trigonal,3.2590000000000003,False,4.839915800000001,4.839915532580314,23.65702
NiPSe3,3,top-down,P-31m,-3m,trigonal,0.0,False,6.15808687,6.162031541979071,23.061818
ErFeGe2,3,top-down,P4/nmm,4/mmm,tetragonal,0.0,False,4.1098705,4.10903675,26.798807
ZrGeTe4,3,top-down,Pmn2_1,mm2,orthorhombic,0.6493,False,4.0227846,11.13653328,27.551831
GeTe,2,top-down,Pmn2_1,mm2,orthorhombic,0.9309000000000001,False,4.23944917,4.42988586,23.02727
Mg2Ti,2,top-down,Pmma,mmm,orthorhombic,0.0,False,2.98554715,4.94185933,27.061876
Dy(CuS)2,3,top-down,P-3m1,-3m,trigonal,0.0,False,3.88739159,3.8872158970390007,24.315159
CuS,2,top-down,P3m1,3m,trigonal,0.0,False,3.66651999,3.6665203385855714,20.492495
CeSe2,2,top-down,P-3m1,-3m,trigonal,1.1182999999999996,False,4.24160854,4.241608379198894,22.8738
Na2ZnS2,3,top-down,Pca2_1,mm2,orthorhombic,2.3617,True,6.6716361,6.69728828,27.548339
SrFe2S2O,4,top-down,Pmmn,mmm,orthorhombic,0.6866999999999999,True,4.45424102,9.32995305,26.605078
Zn(GaS2)2,3,top-down,P-3m1,-3m,trigonal,1.1143,False,3.70358603,3.7035856637842537,29.037868
SnS,2,top-down,Pmmn,mmm,orthorhombic,1.8758,False,3.75776107,5.7843064,22.22502
TbGe5,2,top-down,Pmmm,mmm,orthorhombic,0.0,False,3.3076804,6.31658872,23.326436
NaEr(SO4)2,4,top-down,P2_1/m,2/m,monoclinic,5.1483,True,4.74795676,6.75069363,30.718088
MgSn,2,top-down,Pmmm,mmm,orthorhombic,0.0,False,3.16617825,4.81904765,20.0
LuSb2,2,top-down,C222,222,orthorhombic,0.0,False,3.32558668,3.4422066737198143,25.031709
TiSCl,3,top-down,Pmmn,mmm,orthorhombic,0.0,False,3.431484350606,4.821596708870506,25.083467
YMg2,2,top-down,P-6m2,-6m2,hexagonal,0.0,False,3.37404715,3.374047883887505,25.717573
ErSb2,2,top-down,C222,222,orthorhombic,0.0,False,3.32397454,3.4622746413965024,24.897091
PrAl3Cu,3,top-down,P4mm,4mm,tetragonal,0.0,False,4.13577338,4.13577338,23.662094
RbO2,2,top-down,P4/mmm,4/mmm,tetragonal,0.0,False,4.97631941,4.97631941,25.699372
CaMg,2,top-down,P-3m1,-3m,trigonal,0.0,False,3.64896073,3.6489603951036007,28.784137
KRbMg6O7,4,top-down,P4mm,4mm,tetragonal,0.0,False,4.28409693,4.28409693,28.122897
Al2Zn2S5,3,top-down,P3m1,3m,trigonal,0.0,False,3.69413105,3.6941306429704435,32.118332
PaP2,2,top-down,P4/mmm,4/mmm,tetragonal,0.0,False,5.29710995,5.29710995,22.513147
GeS2,2,top-down,P-4m2,-42m,tetragonal,1.4088999999999996,False,3.49801855,3.49801855,22.855457
Al2ZnS4,3,top-down,P3m1,3m,trigonal,0.0,False,3.68161503,3.681615790913546,29.011671
MgGa2,2,top-down,P-6m2,-6m2,hexagonal,0.0,False,2.9718877,2.9718881778153463,24.953848
CeMg,2,top-down,P-3m1,-3m,trigonal,0.0,False,3.09991738,3.0999175414403592,29.028006
Sb,1,top-down,P-3m1,-3m,trigonal,1.2203000000000002,False,4.11254659,4.112546250228426,21.522725
Hg2GeO4,3,top-down,C222,222,orthorhombic,2.4807,False,6.513407808752509,6.513407434308765,22.2633
SmGe5,2,top-down,Pmmm,mmm,orthorhombic,0.0,False,3.50031311,6.44741484,23.377978
TiAgSe2,3,top-down,P3m1,3m,trigonal,0.0,False,3.4414564000000003,3.441456702973871,25.583703
Sn(NF)2,3,top-down,P2/m,2/m,monoclinic,2.1506999999999996,True,3.68244305,6.88488775,22.855989
Si2O,2,top-down,Cm,m,monoclinic,0.0,False,2.70375401,3.8785847295505658,22.806944
TbCBr,3,top-down,C2/m,2/m,monoclinic,0.0,False,3.8022865,4.003412211418853,26.688255
CaO,2,top-down,P4/nmm,4/mmm,tetragonal,2.4751,True,3.320013128039642,3.320013318993995,22.395507
IrI3,2,top-down,P-31m,-3m,trigonal,1.5617,False,6.862197148564513,6.8621973343599985,22.978663
Bi,1,top-down,Pbam,mmm,orthorhombic,0.0,False,6.4546684,6.93925987,24.520602
LiP3,2,top-down,P-6m2,-6m2,hexagonal,0.0,False,4.19859129,4.198591901101032,22.300729
LaNb2O7,3,top-down,P4/mmm,4/mmm,tetragonal,0.0,False,3.91178161,3.91178161,28.071637
MgSb,2,top-down,Pmm2,mm2,orthorhombic,0.0,False,3.33183361,5.34899043,27.120973
YMg5,2,top-down,Cm,m,monoclinic,0.0,False,3.17909747,6.237672528902668,25.370167
TbCoGe2,3,top-down,P4/nmm,4/mmm,tetragonal,0.0,False,4.11561183,4.11312567,26.757509
CuF2,2,top-down,P2_1/c,2/m,monoclinic,0.4618000000000002,False,3.42034015,5.2543306,21.524519
AuN2,2,top-down,P2/m,2/m,monoclinic,0.0,False,2.88408026,5.10564113,20.816747
Br,1,top-down,P4/mmm,4/mmm,tetragonal,0.0,False,2.874398,2.874398,20.0
Ga2O3,2,top-down,P-62m,-6m2,hexagonal,3.1512,True,5.57734207,5.577341263090276,21.655567
SmSi3Ni,3,top-down,Pmma,mmm,orthorhombic,0.0,False,3.85952635,3.8677711,28.244455
SrBiS2F,4,top-down,P4/nmm,4/mmm,tetragonal,0.8793,True,4.0335362,4.0335362,31.08992
NiTe,2,top-down,P-3m1,-3m,trigonal,0.0,False,3.8629222,3.862922071791113,23.678848
TiAgF6,3,top-down,P-1,-1,triclinic,0.20859999999999967,False,5.210480940823594,5.549580232565174,23.420741
Li2AgSn2,3,top-down,P-4m2,-42m,tetragonal,0.0,False,4.43202648,4.43202648,23.188373
Mg2Rh,2,top-down,P4/mmm,4/mmm,tetragonal,0.0,False,3.15022179,3.15022179,22.883476
LiO2,2,top-down,P-3m1,-3m,trigonal,0.6314000000000002,True,3.29990368,3.2999036999863467,22.189232
CeAl3Cu,3,top-down,P4mm,4mm,tetragonal,0.0,False,3.93965906,3.93965906,23.614006
UTl2O4,3,top-down,P4/mmm,4/mmm,tetragonal,2.0962,False,4.34763616,4.34763616,24.354149
RbHfMg6O7,4,top-down,P4mm,4mm,tetragonal,0.0,False,4.09029718,4.09029718,29.567654
Tm(CuS)2,3,top-down,P-3m1,-3m,trigonal,0.0,False,3.8737682,3.87175741150116,24.201135
TbSb2,2,top-down,C222,222,orthorhombic,0.0,False,3.33224903,3.4766942455233574,24.923409
U(OF)2,3,top-down,P-3m1,-3m,trigonal,2.1731,False,4.22173633,4.221735580326785,23.556642
HgBr2,2,top-down,C2/m,2/m,monoclinic,2.5942999999999996,True,4.115322143630644,4.115321522943012,23.291164
Sr2Co(BrO)2,4,top-down,P4/mmm,4/mmm,tetragonal,0.0,False,4.07337228,4.07337228,25.977334
HfGe2,2,top-down,P4/nmm,4/mmm,tetragonal,0.0,False,3.73494591,3.76199478,25.655071
HfSe3,2,top-down,Pmmn,mmm,orthorhombic,0.36029999999999984,False,3.73715364,5.44428958,26.192416
RbHfMg6O7,4,top-down,P4mm,4mm,tetragonal,0.0,False,4.22548351,4.22548351,28.801845
AgClO4,3,top-down,P-42m,-42m,tetragonal,2.9247,False,4.78899688,4.78899688,21.726015
UBrO2,3,top-down,Pmma,mmm,orthorhombic,0.11010000000000009,False,3.99749443,4.15085906,27.532844
RbNaMg6O7,4,top-down,P4mm,4mm,tetragonal,0.0,False,4.23013692,4.23013692,28.261916
YbCl3,2,top-down,C2/m,2/m,monoclinic,0.7050000000000001,False,6.11628309,7.2088772686961695,22.454131
CeS,2,top-down,P4/nmm,4/mmm,tetragonal,0.0,False,3.933409969963027,3.9334098099640884,23.210179
SbTeI,3,top-down,C2/m,2/m,monoclinic,0.9827999999999999,False,4.279876381292178,7.695319614760046,24.080763
Mg6VC,3,top-down,Pmm2,mm2,orthorhombic,0.0,False,3.02060464,8.44113196,24.884154
TiNF,3,top-down,Pmmn,mmm,orthorhombic,0.6611000000000002,True,3.05992082,3.95556692,24.334873
CoTe2,2,top-down,P-3m1,-3m,trigonal,0.0,False,3.6290222858831513,3.6290222034810875,22.656792
Be2BO5,3,top-down,C2,2,monoclinic,0.1783999999999999,False,4.48539944,4.491426379810939,24.312209
Sn3F8,2,top-down,P2_1/c,2/m,monoclinic,3.3404999999999996,True,5.31868995,13.30629356,22.938305
P,1,top-down,Pmna,mmm,orthorhombic,0.8523999999999998,True,3.32613161,4.5732475,22.120631
CuBr,2,top-down,P-6m2,-6m2,hexagonal,1.0676,True,4.10523626,4.105236254115062,20.0
BiBrO,3,top-down,P4/nmm,4/mmm,tetragonal,2.4111000000000002,False,3.93751165,3.93751165,25.731456
SnPS3,3,top-down,Pc,m,monoclinic,2.2014,False,6.573519608912178,9.423551777715993,28.478279
LaBrO,3,top-down,P4/nmm,4/mmm,tetragonal,3.9982,True,4.06405688,4.06405688,25.515016
MoSe2,2,top-down,P-6m2,-6m2,hexagonal,1.4237999999999997,True,3.33123055,3.3312304975181193,23.345233
LiCoAs,3,top-down,P4/nmm,4/mmm,tetragonal,0.0,False,3.71556824,3.71556824,24.023173
TiCuF6,3,top-down,P-1,-1,triclinic,0.6249000000000002,False,4.991291241769301,5.285076604787456,23.520702
KH2N,3,top-down,Pmmn,mmm,orthorhombic,2.2845999999999997,True,3.71016423,4.49999603,24.611258
ZrGe2,2,top-down,P4/nmm,4/mmm,tetragonal,0.0,False,3.77751726,3.77983038,25.781741
Zr2Te2P,3,top-down,P-3m1,-3m,trigonal,0.0,False,3.85262467,3.8526245465221955,26.662675
BiSe,2,top-down,P2_1/c,2/m,monoclinic,0.028200000000000003,True,7.7420531,7.34244103,22.0755
PbIF,3,top-down,P4/nmm,4/mmm,tetragonal,2.3601,False,4.19405268,4.19405268,26.208816
ZrTe3,2,top-down,Pmmn,mmm,orthorhombic,0.0,False,3.99237731,5.94416507,26.824171
CrSBr,3,top-down,Pmmn,mmm,orthorhombic,0.2927999999999997,True,3.53931001,4.72613941,25.653639
Eu2ZnGe3,3,top-down,P-6m2,-6m2,hexagonal,0.0,False,4.1984515,4.200476375920182,27.976666
YSb2,2,top-down,C222,222,orthorhombic,0.0,False,3.37050476,3.495351248536288,24.904261
Zn2SiO4,3,top-down,P2_1/m,2/m,monoclinic,2.8388999999999998,True,4.90514564,6.21574386,24.593467
Cu2Te,2,top-down,P6/mmm,6/mmm,hexagonal,0.0,False,4.32033795,4.3203374051004015,24.537695
YCl3,2,top-down,P-31m,-3m,trigonal,4.9775,False,6.870690300922186,6.870690458494006,23.046666
GeS,2,top-down,Pmn2_1,mm2,orthorhombic,1.7197,False,3.65272895,4.46212415,22.677177
U4Te3O4,3,top-down,P4/mmm,4/mmm,tetragonal,0.0,False,3.93237527,3.93237527,31.799075
PdSe2,2,top-down,P2_1/c,2/m,monoclinic,1.4254000000000002,False,5.69427436,5.90253514,21.474759
Cr3N2,2,top-down,C2,2,monoclinic,0.0,False,5.222430286040202,5.223859350033313,22.034252
UI3,2,top-down,Pmmn,mmm,orthorhombic,0.03410000000000002,False,4.16430894,9.96621706,24.951208
Sr2Cu(ClO)2,4,top-down,P4/mmm,4/mmm,tetragonal,0.0,False,3.93575297,3.93575297,25.861017
BaIF,3,top-down,P4/nmm,4/mmm,tetragonal,4.3368,True,4.52418085,4.52418085,25.642424
UPb2,2,top-down,P-1,-1,triclinic,0.0,False,3.597916711828926,5.319358809325725,26.177714
NiCl2,2,top-down,P-3m1,-3m,trigonal,0.8106,False,3.45200061,3.452000994211326,22.61355
CaSn4S9,3,top-down,Pmm2,mm2,orthorhombic,0.9169,False,3.80628298,9.61339207,29.767668
Np(OF)2,3,top-down,P6/mmm,6/mmm,hexagonal,0.0,False,4.19875435,4.19875435247791,23.544325
TaNiTe2,3,top-down,Pmna,mmm,orthorhombic,0.0,False,6.26689322,7.96693523,24.694241
UTeP,3,top-down,P4/mmm,4/mmm,tetragonal,0.0,False,3.9930113422316293,3.993388628940391,27.034955
Zr3SO9,3,top-down,P-3,-3,trigonal,3.8145000000000007,False,6.41701718,6.417017250470499,27.424485
LaSe,2,top-down,P4/nmm,4/mmm,tetragonal,0.0,False,4.223723545793167,4.2259056543275175,23.510095
DyCl3,2,top-down,Pmmn,mmm,orthorhombic,3.8933999999999997,True,3.77236959,8.47046097,23.944354
P2H4PbO4,4,top-down,P4/nbm,4/mmm,tetragonal,4.0217,True,5.98758053,6.0093353,26.178062
NiTe2,2,top-down,P-3m1,-3m,trigonal,0.0,False,3.77191296,3.7719127831370396,22.594891
Nb(SBr)2,3,top-down,C2/m,2/m,monoclinic,1.5533000000000001,False,6.603884003740429,6.603203605213917,24.099679
NbTe5Pd,3,top-down,Pmc2_1,mm2,orthorhombic,0.0,False,3.78205582,15.64991854,24.46329
ZrCl,2,top-down,P-3m1,-3m,trigonal,0.0,False,3.44089396,3.447177739896827,25.87179
ZrSiTe,3,top-down,P4/nmm,4/mmm,tetragonal,0.0,False,3.70417876,3.70417876,26.98147
ThBrN,3,top-down,P4/nmm,4/mmm,tetragonal,2.5888,False,4.05303357,4.05303357,25.804565
As,1,top-down,Pmna,mmm,orthorhombic,0.6292,False,3.70509148,4.69018996,22.423865
Sn(CCl)2,3,top-down,Pmma,mmm,orthorhombic,0.6166,False,5.13778909,9.2844176,23.871326
AgN3,2,top-down,Pccm,mmm,orthorhombic,1.8287,False,5.41362361,6.33049665,21.248845
KRbMg6O7,4,top-down,P4mm,4mm,tetragonal,0.0,False,4.13098956,4.13098956,30.383747
LiBiO2,3,top-down,Pbcm,mmm,orthorhombic,2.2825,False,4.72963091,5.27709262,26.282917
LiAuF4,3,top-down,P2/c,2/m,monoclinic,2.3606999999999996,True,4.138592480778183,10.417817866725898,21.875986
BiTe,2,top-down,P-3m1,-3m,trigonal,0.0,False,4.46766832,4.467668855093021,61.929356
ErCoGe2,3,top-down,P4/nmm,4/mmm,tetragonal,0.0,False,4.06845268,4.06653312,26.764092
GeI2,2,top-down,P-3m1,-3m,trigonal,2.1318,False,4.26858487,4.268584239086092,23.515878
YS,2,top-down,P4/nmm,4/mmm,tetragonal,0.0,False,3.815350961925362,3.815351011541793,23.289586
Bi2Se3,2,top-down,P2_1/m,2/m,monoclinic,1.2773999999999999,False,4.17151192,10.22844092,25.313899
RhCl3,2,top-down,P-31m,-3m,trigonal,1.7378000000000005,False,6.027637693974087,6.02763819397005,22.631236
InSe,2,top-down,P-6m2,-6m2,hexagonal,1.5379999999999998,False,4.05498125,4.054980657305679,25.367028
TiBrN,3,top-down,Pmmn,mmm,orthorhombic,0.5802,True,3.3714667,3.94778684,25.497036
ErSeI,3,top-down,Pmmn,mmm,orthorhombic,2.3193,True,4.17469099,5.5706348,26.649162
Nb3GeTe6,3,top-down,Pmc2_1,mm2,orthorhombic,0.0,False,6.53970908,11.69327915,23.782422
NbCrSe5,3,top-down,P2_1/m,2/m,monoclinic,0.0,False,3.5255546,10.34625161,27.863875
PbI2,2,top-down,P-3m1,-3m,trigonal,2.5868,False,4.57831972,4.578319837634606,23.710443
Mn(HO)2,3,top-down,P-3m1,-3m,trigonal,1.3653000000000002,True,3.34059294,3.3405932952930377,24.123308
KFe2Se3,3,top-down,Pmma,mmm,orthorhombic,0.0,False,5.34565704,8.83353867,23.805451
TeRhCl,3,top-down,P2_1/m,2/m,monoclinic,1.1188,True,3.69756172,6.65392089,22.711027
Pb(CO2)2,3,top-down,P-1,-1,triclinic,2.9427,True,5.982207160244217,7.290719990497933,23.559421
V2PbO6,3,top-down,C2/m,2/m,monoclinic,2.2522,False,3.73201374,8.153788797115233,29.526971
NaSb5O8,3,top-down,P1,1,triclinic,2.9356999999999998,False,7.147314970376548,7.306455251724207,23.775741
Hf3Te2,2,top-down,P4/mmm,4/mmm,tetragonal,0.0,False,3.6970344,3.6970344,26.086801
Ca(AuF6)2,3,top-down,P-4m2,-42m,tetragonal,1.6539000000000001,True,5.68070149,5.68070149,27.591002
Bi2Te2S,3,top-down,P-3m1,-3m,trigonal,0.9331,False,4.28828515,4.288285023833254,27.069458
SiP,2,top-down,C2/m,2/m,monoclinic,1.9513999999999998,False,3.54518903,10.476044962531152,24.729076
Sn(SbTe2)2,3,top-down,P-3m1,-3m,trigonal,0.6333,False,4.37465959,4.374659836849748,31.124633
AgClO2,3,top-down,Pcca,mmm,orthorhombic,1.3769000000000002,False,5.98568103,6.09623711,24.986493
Sc2CCl2,3,top-down,P-3m1,-3m,trigonal,0.8565,False,3.43251466,3.4325143282277337,25.805205
PbBr2,2,top-down,P2_1/m,2/m,monoclinic,2.8199,False,4.41279335,7.59527037,23.114475
CdWO4,3,top-down,P2/c,2/m,monoclinic,3.4299,False,5.234528951563879,5.014376412670793,24.381779
Sn3PO6,3,top-down,Pc,m,monoclinic,0.0,False,4.988424790107674,11.35469449515222,24.088605
UNCl,3,top-down,P4/nmm,4/mmm,tetragonal,0.0,False,3.78522092,3.78522092,25.395326
Cd3P2,2,top-down,P-4m2,-42m,tetragonal,0.8441000000000001,True,9.01641938,9.01641938,28.725674
Ta2AgF12,3,top-down,P-1,-1,triclinic,0.7224000000000004,False,5.230900471611535,5.572135709988308,27.898945
ThIN,3,top-down,P4/nmm,4/mmm,tetragonal,2.6652,False,4.11954999,4.11954999,26.296506
CdCl2,2,top-down,P-3m1,-3m,trigonal,3.9477,True,3.86105157,3.861051441976728,22.865228
CuTe,2,top-down,Pmmn,mmm,orthorhombic,0.0,False,3.2171911,3.99678749,23.88941
TbBr,2,top-down,P-3m1,-3m,trigonal,0.0,False,3.79312563,3.7931249697083884,26.638439
Se2O5,2,top-down,P2_1/c,2/m,monoclinic,2.9909999999999997,True,7.00153819,13.81210561,22.231683
NaN3,2,top-down,Pmmm,mmm,orthorhombic,1.0971000000000002,False,5.58623713,4.71167378,20.039436
Bi2TeO5,3,top-down,Aem2,mm2,orthorhombic,2.809,True,5.53517906,8.784645659961969,30.148236
Au2Se2O7,3,top-down,Pba2,mm2,orthorhombic,1.1555,True,7.12758601,11.37612629,22.612811
Ag2IOF,4,top-down,P2_1,2,monoclinic,0.8867999999999998,False,5.82016019,4.22033007,22.898921
CeSe2,2,top-down,P2_1/m,2/m,monoclinic,0.0,False,5.54068344,5.53465892,29.175602
PbBrCl,3,top-down,P2_1/m,2/m,monoclinic,2.9665000000000004,False,4.36647095,7.54681242,23.097429
AuI,2,top-down,Cmme,mmm,orthorhombic,1.7685999999999997,False,4.256698941081135,4.256698941081135,24.122461
Tl4O3,2,top-down,P2_1/m,2/m,monoclinic,1.1298000000000001,False,3.53688944,7.71573024,27.762595
Te2W,2,top-down,P2_1/m,2/m,monoclinic,0.07329999999999992,False,3.52591664,6.31010442,24.19467
YCI,3,top-down,C2/m,2/m,monoclinic,0.0,False,3.91114629,4.143442373854822,26.982062
Ge3Sb2O9,3,top-down,P-6,-6,hexagonal,3.9732000000000003,False,7.23134142,7.231341118963282,25.093042
NaNbCl6,3,top-down,P2_1,2,monoclinic,2.1948999999999996,True,6.30762177,6.75270059,29.484264
Mg2Si,2,top-down,P2/c,2/m,monoclinic,0.0,False,5.799077011267488,5.889508500421865,28.824571
TeI,2,top-down,Pmma,mmm,orthorhombic,0.8259000000000001,True,8.187163657145259,9.9862834940866,24.867373
NaMnAs,3,top-down,P4/nmm,4/mmm,tetragonal,0.0,False,3.78370433,3.78370433,24.997996
Na2ZnCl4O3,4,top-down,P31m,3m,trigonal,0.6517,False,6.784805970876337,6.784805779075515,22.758722
Mn2NiO6,3,top-down,P-31m,-3m,trigonal,1.4542000000000002,False,4.98186201,4.983592755282716,21.913445
AuSe,2,top-down,P2/m,2/m,monoclinic,1.2376,False,3.67680504,6.24337376,22.522908
CaHBr,3,top-down,P4/nmm,4/mmm,tetragonal,4.1537,False,3.80130814,3.80130814,25.325749
NdI2,2,top-down,P4/mmm,4/mmm,tetragonal,0.0,False,3.86894994,3.86894994,23.775734
Li2TeO3,3,top-down,C2/m,2/m,monoclinic,3.9402,False,5.16308396,5.433745008069835,24.3819
NdBrO,3,top-down,P4/nmm,4/mmm,tetragonal,4.7336,True,3.99115944,3.99115944,25.694262
Zr(IO3)4,3,top-down,P4/n,4/m,tetragonal,3.3015,True,8.4127279,8.4127279,26.720336
VPO5,3,top-down,P4/nmm,4/mmm,tetragonal,1.9341,False,6.22870604,6.22870604,22.191196
TaS2,2,top-down,P-6m2,-6m2,hexagonal,0.0,False,3.34494875,3.344948544193089,23.127452
LiV2O5,3,top-down,Pmmn,mmm,orthorhombic,0.7069999999999999,True,3.67506919,11.32712539,27.002387
TiClO,3,top-down,Pmmn,mmm,orthorhombic,0.0,False,3.26358262,3.95464653,25.236557
Sc7Cl10,2,top-down,C2/m,2/m,monoclinic,0.0,False,3.52768867,15.710270759612039,26.604823
CuBr,2,top-down,P4/nmm,4/mmm,tetragonal,1.599,True,3.81995058,3.81995058,23.172597
Hg2ClO,3,top-down,P2/c,2/m,monoclinic,1.8212999999999995,True,6.04348568,13.34884963,23.439699
P2O5,2,top-down,Pmn2_1,mm2,orthorhombic,5.2256,True,4.9132248,7.35106738,25.596444
CaMnGe,3,top-down,P4/nmm,4/mmm,tetragonal,0.0,False,3.90526111,3.90526111,24.740133
TlF3,2,top-down,Pmc2_1,mm2,orthorhombic,2.5628,False,4.62451587,5.90137117,22.613035
LiV2O5,3,top-down,Pmmn,mmm,orthorhombic,0.2567000000000004,False,3.72052531,11.19348861,24.320595
GaTeCl,3,top-down,Pmn2_1,mm2,orthorhombic,2.2963999999999993,False,4.12901921,5.84637159,25.296984
Te4O9,2,top-down,P-3,-3,trigonal,2.6005000000000003,False,9.43112713,9.431126733348355,22.777848
Sn4Pt,2,top-down,P4/nbm,4/mmm,tetragonal,0.0,False,6.68421407,6.67477082,22.903975
BiS,2,top-down,Pmc2_1,mm2,orthorhombic,0.0,False,5.63090851,15.17380679,23.134346
CoCl2,2,top-down,P-3m1,-3m,trigonal,0.10970000000000013,False,3.48588945,3.485889349889704,22.66896
Zn(InS2)2,3,top-down,P3m1,3m,trigonal,0.0,False,3.9103158,3.91031610229092,29.537275
Nb(SeCl)2,3,top-down,C2/m,2/m,monoclinic,1.0705,True,6.381818934565177,6.573713208202946,24.391124
GaSe,2,top-down,P-6m2,-6m2,hexagonal,1.8934,False,3.80243072,3.802430589251681,24.817544
Sb2Se3,2,top-down,P2_1/m,2/m,monoclinic,0.8754999999999997,False,4.03548593,11.08418288,25.244314
ScSi3Ni2,3,top-down,P4/nmm,4/mmm,tetragonal,0.0,False,3.64894959,3.64894959,29.534173
CaThBr6,3,top-down,Pmm2,mm2,orthorhombic,1.9820999999999995,True,4.1452829,9.15865719,24.345004
Sr3Co2Cl2O5,4,top-down,P4/mmm,4/mmm,tetragonal,0.0,False,3.86992515,3.86992515,29.982184
InTeI,3,top-down,P2_1/c,2/m,monoclinic,1.9599000000000002,False,7.78241484,8.3902148,25.075891
RbMnAs,3,top-down,P4/nmm,4/mmm,tetragonal,0.0,False,4.18891369,4.18891369,26.516489
Mn2Te3O8,3,top-down,C2,2,monoclinic,2.4734,False,5.30549057,7.029707015111088,25.299017
ZrIN,3,top-down,Pmmn,mmm,orthorhombic,1.3413999999999997,True,3.77044089,4.14962801,26.353919