Formula,No. of Elements,Discovery Process,Space Group,Point Group,Crystal System,Band Gap,Is Gap Direct?,a,b,c
ScF2,2,bottom-up,P-6m2,-6m2,hexagonal,0.7406000000000001,False,3.09796026,3.097960203643705,23.825805
ScF2,2,bottom-up,P4/mmm,4/mmm,tetragonal,0.0,False,2.7615793046420603,2.761585489905921,23.801584012516084
Mo3O8,2,bottom-up,C2/m,2/m,monoclinic,1.7597000000000005,False,5.5183387202081935,5.517032032213153,26.248058519311407
PtS,2,bottom-up,P4/nmm,4/mmm,tetragonal,0.0,False,3.8627927,3.8627927,22.999467
FeBr4,2,bottom-up,P2_1/c,2/m,monoclinic,0.0031999999999996476,True,5.9480960137231005,7.201453016261887,23.393746120970466
HgF2,2,bottom-up,P-3m1,-3m,trigonal,1.9769000000000005,True,3.641196,3.6411958349295985,22.956052
IrBr4,2,bottom-up,P2_1/c,2/m,monoclinic,0.0,False,6.12883199755362,6.530438275117468,23.19163815323275
SrC2,2,bottom-up,P-3m1,-3m,trigonal,0.19850000000000012,False,4.22659292,4.22659288520704,24.664279
RuSe,2,bottom-up,P4/nmm,4/mmm,tetragonal,0.0,False,3.984016,3.984016,22.422642
SmC2,2,bottom-up,P4/mmm,4/mmm,tetragonal,0.0,False,3.60813,3.60813,22.592014
SiN3,2,bottom-up,P-3m1,-3m,trigonal,0.8319999999999999,False,5.05796389,5.057963870037152,21.405434
VI4,2,bottom-up,P4/mmm,4/mmm,tetragonal,0.0,False,5.545485,5.545485,23.812503
NiN2,2,bottom-up,P-1,-1,triclinic,0.17930000000000001,False,3.1029171373482467,4.244538868536308,24.942565377115542
SO2,2,bottom-up,P2_1/c,2/m,monoclinic,3.0316999999999994,False,4.8070957,6.261868830218373,24.173050478378624
PbN2,2,bottom-up,Pmc2_1,mm2,orthorhombic,0.0,False,3.21697,7.030417,25.607718
Bi5B,2,bottom-up,Pmc2_1,mm2,orthorhombic,0.0,False,6.532255,12.026498,26.806861
AlBi5,2,bottom-up,Pmc2_1,mm2,orthorhombic,0.0,False,8.368733,13.545605,26.806861
GaBi5,2,bottom-up,Pmc2_1,mm2,orthorhombic,0.0,False,6.681751,12.650452,26.806861
GeBi,2,bottom-up,C2/m,2/m,monoclinic,0.9413,True,4.24739331,12.345718817246265,24.72614126783406
InBi5,2,bottom-up,Pmc2_1,mm2,orthorhombic,0.05509999999999993,True,8.26207,14.12908,26.806861
Si3Pt,2,bottom-up,P4/mbm,4/mmm,tetragonal,0.0,False,5.73315679,5.73270105,25.488904
Te5Ru4,2,bottom-up,P4/n,4/m,tetragonal,0.0,False,9.018202638626946,9.017137097797448,22.534334087643703
B4O3,2,bottom-up,P2_1/m,2/m,monoclinic,0.0,False,2.34137087,7.458358701022761,29.614088788142222
ReCl4,2,bottom-up,P2_1/c,2/m,monoclinic,0.0,False,5.627871,6.691356355430564,23.100188849331257
BSb5,2,bottom-up,Pmc2_1,mm2,orthorhombic,0.0,False,7.855866,10.754028,26.806861
ReBr4,2,bottom-up,P2_1/c,2/m,monoclinic,0.0,False,5.92085109,7.101845778476553,23.046684038228367
ZrBr4,2,bottom-up,P1,1,triclinic,2.5913,False,6.6725952414853555,7.696042715806741,23.60220191099716
P4Cl,2,bottom-up,P2/m,2/m,monoclinic,0.0,False,3.22345642,12.801384289031432,35.99099657259848
TcCl4,2,bottom-up,P2_1/c,2/m,monoclinic,0.0,False,5.58492,6.692684046823665,23.10228647737899
Ge3I8,2,bottom-up,P1,1,triclinic,0.5217,False,7.3561926084428455,8.35677447571877,33.62648881912863
NbI5,2,bottom-up,P1,1,triclinic,0.5422,False,7.5900371713382935,9.634300289789861,21.97325491089688
CrBr4,2,bottom-up,P-1,-1,triclinic,0.0,False,5.8322637942530555,6.897465352693984,23.03267356938144
Y2Te3,2,bottom-up,P1,1,triclinic,0.78,False,7.942445235694987,7.818910756236319,20.273425674478453
In2O3,2,bottom-up,Pmn2_1,mm2,orthorhombic,1.5267000000000002,False,3.458719936647083,6.421721985996124,25.735537
TiTe3,2,bottom-up,P2_1/m,2/m,monoclinic,0.0,False,3.763975480935409,5.960510245116388,25.930335021294614
TePt,2,bottom-up,P4/nmm,4/mmm,tetragonal,0.0,False,3.950218946333781,3.950218286345028,22.999467000000237
AlBr,2,bottom-up,Aem2,mm2,orthorhombic,2.0677,False,6.285272000001989,6.285344491241988,23.140017808250708
GaN3,2,bottom-up,P-3m1,-3m,trigonal,0.0,False,5.393319670411562,5.393328975108694,21.198255049336336
OsPb2,2,bottom-up,P4/mmm,4/mmm,tetragonal,0.0,False,3.2972065207379755,3.2971894207688788,22.803662000128814
Re2Cl7,2,bottom-up,P2/c,2/m,monoclinic,0.17849999999999966,True,5.997111279358802,11.998014283091257,23.69029
CS,2,bottom-up,Pmmn,mmm,orthorhombic,0.0,False,2.693154388529439,6.216261710998892,21.993132000000045
Os4Se5,2,bottom-up,P4/n,4/m,tetragonal,0.013900000000000023,False,8.61930405172749,8.621975539378681,22.535131439112032
Ge3H,2,bottom-up,P-3m1,-3m,trigonal,0.09810000000000008,True,4.056112971828598,4.0561123865805975,30.11045001222783
InSb5,2,bottom-up,Pmc2_1,mm2,orthorhombic,0.6100999999999999,True,7.95262657,14.11645476,26.806861
Ge4Pd,2,bottom-up,P4/nbm,4/mmm,tetragonal,0.0,False,6.202932041691333,6.204209041786148,22.903963000100177
O5F2,2,bottom-up,P2_1,2,monoclinic,0.6772,True,3.95470126,9.527749038163948,23.19417392350668
EuSn2,2,bottom-up,P-3m1,-3m,trigonal,0.0,False,3.3848960176525686,3.385563787921972,24.04033116656845
Bi3C,2,bottom-up,P-3m1,-3m,trigonal,0.00029999999999996696,True,7.919774000010669,7.919775551683331,21.40543400003235
TlBi,2,bottom-up,P-6m2,-6m2,hexagonal,0.0,False,5.0833418300848825,5.083341871184944,20.000000000313182
NbBr4,2,bottom-up,P2_1/c,2/m,monoclinic,0.0,False,6.3763571,18.269011065021452,24.345569393728255
Be2Cd,2,bottom-up,P4/mmm,4/mmm,tetragonal,0.0,False,2.6665226328452567,2.6665166329531864,23.983674000020056
Sb3Pb,2,bottom-up,P-3m1,-3m,trigonal,0.0,False,7.882084008237415,7.881707226794142,21.40539898339202
ZrI4,2,bottom-up,P-1,-1,triclinic,1.7218,False,8.383986136685321,7.127988976075131,22.7320196561548
Tl2Te3,2,bottom-up,P-62m,-6m2,hexagonal,0.010199999999999765,False,7.689946155673142,7.690230219734437,20.011829118824235
NbCl4,2,bottom-up,P2_1/c,2/m,monoclinic,0.27649999999999997,False,6.05639377,11.801733608727515,24.507582995969468
PuBr3,2,bottom-up,P-6m2,-6m2,hexagonal,0.0,False,4.97925336391371,4.973223336131306,24.72821111341492
PtC4,2,bottom-up,Cmmm,mmm,orthorhombic,1.2080000000000002,False,7.376443180000026,4.8198780100000045,22.926359000000105
Tc3I8,2,bottom-up,P1,1,triclinic,0.0374000000000001,False,7.794135003605596,7.794771977073992,22.151499915573144
Re2Br7,2,bottom-up,P2/c,2/m,monoclinic,0.0,False,5.9855019169664,12.133717395821348,23.69029
BAs3,2,bottom-up,P-3m1,-3m,trigonal,0.0,False,6.979687000149004,6.979687985990348,21.198253000227048
SnSb3,2,bottom-up,P-3m1,-3m,trigonal,0.0,False,7.787437262537943,7.78811545302237,21.4054263493395
PbBr4,2,bottom-up,P4/mmm,4/mmm,tetragonal,0.0,False,5.66590694995082,5.666001001729615,23.818274003063298
CuTe,2,bottom-up,P2/m,2/m,monoclinic,0.0,False,3.8783869805193185,3.902758484883879,23.046346443861324
NbCl4,2,bottom-up,P2_1/c,2/m,monoclinic,0.0,False,6.06415752,9.039332154721887,25.822726514352578
Bi3B,2,bottom-up,P-3m1,-3m,trigonal,9.999999999976694e-05,True,8.134103000006146,8.134178335353855,21.198253000049156
AuCl,2,bottom-up,P-3m1,-3m,trigonal,0.0,False,3.5478907405476714,3.547903910842886,23.81471700024419
Tc2Br7,2,bottom-up,P2/c,2/m,monoclinic,0.05909999999999993,False,6.470152963057397,12.650489349104559,23.69029
Si4Pt,2,bottom-up,P4/nbm,4/mmm,tetragonal,0.0,False,5.922612172152419,5.9293571724385945,22.926359000000023
SbPb,2,bottom-up,C2/m,2/m,monoclinic,0.6232000000000002,False,4.47867224,13.264544442980505,24.720479784167384
Re3I8,2,bottom-up,P1,1,triclinic,0.07109999999999994,False,7.829900644932604,7.827894743003573,22.35930777063682
Bi3Pb,2,bottom-up,P-3m1,-3m,trigonal,0.0,False,8.070343418320808,8.069079988266383,21.405421002550874
PtF2,2,bottom-up,P2_1/c,2/m,monoclinic,1.4417,False,5.531018050382949,7.5144260000112455,26.305533443630107
EuSi2,2,bottom-up,P-3m1,-3m,trigonal,0.0,False,3.0141750300913386,3.0141838002052483,24.04033100027754
TcI4,2,bottom-up,P2_1/c,2/m,monoclinic,0.0,False,6.13207278,7.58585170600833,23.074324105420754
NO2,2,bottom-up,Pm,m,monoclinic,0.0,False,2.39327163,6.225599020129642,30.9714815317677
PuCl3,2,bottom-up,P-6m2,-6m2,hexagonal,0.0,False,4.810658079395063,4.811371276172937,24.728211000143844
CN3,2,bottom-up,P-3m1,-3m,trigonal,0.0008999999999999009,True,4.726055000030575,4.726052848896847,21.40543400004048
Mg5Co,2,bottom-up,Pmc2_1,mm2,orthorhombic,0.0,False,5.518759,6.54295,25.78836
Tc2Br5,2,bottom-up,P2/c,2/m,monoclinic,0.0,False,5.969191033323193,6.462254636019382,25.167624693306397
SiBi3,2,bottom-up,P-3m1,-3m,trigonal,0.0,False,7.767523431644477,7.767294268019206,21.405379203825472
TaTe2,2,bottom-up,P-6m2,-6m2,hexagonal,0.0,False,7.412509110000931,7.412503590203787,23.39691000000023
GaBr,2,bottom-up,P4/nmm,4/mmm,tetragonal,2.5788,True,6.246806000254931,6.24634448545035,23.140018792879037
SnBi3,2,bottom-up,P-3m1,-3m,trigonal,0.0,False,8.00771062382171,8.005733523578153,21.40543227650419
InN5,2,bottom-up,Pmc2_1,mm2,orthorhombic,0.0,False,3.43090104,5.82747213,26.806861
Ge4Pt,2,bottom-up,P4/nbm,4/mmm,tetragonal,0.0,False,6.188303032888258,6.19572303284887,22.92635900000055
PbCl4,2,bottom-up,P4/mmm,4/mmm,tetragonal,0.5255000000000001,False,5.323341554955921,5.323485400005069,23.818287967266528
BSb3,2,bottom-up,P-3m1,-3m,trigonal,0.0,False,7.822066002287503,7.82093744272079,21.198253072195808
TeAu2,2,bottom-up,Pmc2_1,mm2,orthorhombic,0.19910000000000005,False,4.871107493199867,5.984739420266257,23.357088562392168
GaSb5,2,bottom-up,Pmc2_1,mm2,orthorhombic,0.5678999999999998,False,7.93408226,13.9326515,26.806861
NiN2,2,bottom-up,P4/mmm,4/mmm,tetragonal,0.0,False,2.8908834454119527,2.8908615780498605,23.5304691366367
Ca2Ir,2,bottom-up,P4/mmm,4/mmm,tetragonal,0.0,False,3.481227,3.481227,24.358006
GeBi3,2,bottom-up,P-3m1,-3m,trigonal,0.0,False,7.817106183695217,7.856645793337129,21.68013637755697
Ta3I8,2,bottom-up,P3m1,3m,trigonal,0.1491,False,7.605781,7.60578076362197,23.495154
Cu2Se,2,bottom-up,Pmma,mmm,orthorhombic,0.025700000000000056,False,4.224838001088444,5.1395720405198135,23.07033219109818
SnSb,2,bottom-up,C2/m,2/m,monoclinic,1.3019,False,4.35949416,12.852630650397979,24.723231744050768
V2Te3,2,bottom-up,P2_1/m,2/m,monoclinic,0.0,False,3.6516751504406866,9.98889701065892,23.989866491066095
Cu2Te,2,bottom-up,P2_1,2,monoclinic,0.03819999999999979,False,4.9124050004162925,4.936010143416746,22.5181641007762
NbBr4,2,bottom-up,P2_1/c,2/m,monoclinic,0.0,False,6.454668770127256,9.553914580922637,26.098747184010577
I4N,2,bottom-up,P1,1,triclinic,0.0,False,6.340628716625348,6.010659748802123,22.913483627445284
Tl3Co,2,bottom-up,P-6m2,-6m2,hexagonal,0.0,False,4.3644742700099854,4.364474396191831,25.130912000000922
RhBr4,2,bottom-up,P2/m,2/m,monoclinic,0.0,False,6.780637904865108,6.783618641129014,23.74379102384491
HfI4,2,bottom-up,P-1,-1,triclinic,2.0792,False,7.10925195648959,8.340206534441482,24.065895635934126
TcF3,2,bottom-up,P-3m1,-3m,trigonal,0.9070999999999998,False,8.699853320256882,8.699766904633888,26.856057961235724
Nb2O5,2,bottom-up,Pmn2_1,mm2,orthorhombic,2.1597999999999997,False,7.11091524,3.88649793,26.154974
SF,2,bottom-up,P-1,-1,triclinic,3.4256,False,6.032381406192168,7.459096074001527,25.36203287201704
TaBr4,2,bottom-up,P2_1/c,2/m,monoclinic,0.22019999999999995,False,6.23827549,13.360105553180352,28.223811817118044
NbBr5,2,bottom-up,P1,1,triclinic,0.4765999999999999,False,7.434181720583762,7.415628449487104,25.360226915448354
OsBr4,2,bottom-up,P2_1/c,2/m,monoclinic,0.0,False,6.224622021237219,6.614418837512267,23.352966326251302
NbI4,2,bottom-up,P2_1/c,2/m,monoclinic,0.0,False,5.03656,15.631732918237983,25.71745448525359
MnF3,2,bottom-up,P-3m1,-3m,trigonal,1.8242999999999991,True,10.556019,10.556018215808507,26.856058
Tl2O3,2,bottom-up,Pc,m,monoclinic,0.3955000000000002,True,3.579834980390976,6.544490826475337,25.735537
AlSb5,2,bottom-up,Pmc2_1,mm2,orthorhombic,0.4061999999999999,True,7.92421681,13.76537712,26.806861
Nb2O5,2,bottom-up,P2_1,2,monoclinic,3.1231999999999998,False,6.04450815,11.019968298438608,24.381711108129803
Te11Au18,2,bottom-up,P1,1,triclinic,0.0,False,4.8378904531182005,4.618476016063115,52.64339155502452
HC3,2,bottom-up,P-3m1,-3m,trigonal,0.0,False,2.5068621400052358,2.5068621535552675,30.110450000028003
Te5Os4,2,bottom-up,P-1,-1,triclinic,0.0,False,8.959403012010878,8.960203345462013,22.533709907757068
GeN3,2,bottom-up,P-3m1,-3m,trigonal,1.5749000000000002,False,5.212966190930875,5.212933734393349,21.680164004254518
OsI4,2,bottom-up,P2_1/c,2/m,monoclinic,0.0,False,6.672776291663762,6.931195295827265,23.428267944987887
TaCl4,2,bottom-up,P2_1/c,2/m,monoclinic,0.0,False,6.056157949729779,8.988343642315895,25.818601498108713
V3Br8,2,bottom-up,P-3m1,-3m,trigonal,0.0,False,7.456399,7.456399289185162,23.495154
In2Se3,2,bottom-up,P-62m,-6m2,hexagonal,1.3535,True,7.071570000165522,7.071769377078413,20.011829000226715
PC,2,bottom-up,P-1,-1,triclinic,1.9758,False,2.918732128472909,8.493014233621535,25.213041079129923
LaBe5,2,bottom-up,Cm,m,monoclinic,0.0,False,3.7755654778170644,3.750697334991855,25.338902949650784
SrGe2,2,bottom-up,P-3m1,-3m,trigonal,0.0,False,3.391820000521549,3.3918150408837153,24.664279001083674
SiSb3,2,bottom-up,P-3m1,-3m,trigonal,0.0,False,8.162868381102152,8.162862177594967,21.40543400002286
N2O3,2,bottom-up,P2_1,2,monoclinic,0.0,False,3.7480495618987884,6.985168200857469,22.22129700929888
NiTe2,2,bottom-up,P2_1/c,2/m,monoclinic,0.9822,False,5.849067260047377,6.244152275854227,21.488162075364144
CuCl,2,bottom-up,P3m1,3m,trigonal,1.3107000000000002,True,3.875562001269622,3.875561150007054,20.195520003593987
WS3,2,bottom-up,P2_1/c,2/m,monoclinic,0.004100000000000215,False,9.710131840000049,9.933188468763515,24.48301897436417
IrCl4,2,bottom-up,P-1,-1,triclinic,0.0,False,6.241446193956335,5.698825670481309,23.150831163562483
P9F2,2,bottom-up,P-1,-1,triclinic,0.0,False,3.199377420896677,5.266535941529803,32.21552386774286
As9F2,2,bottom-up,P2_1/m,2/m,monoclinic,0.0,False,3.7131197001326437,11.06975770078504,34.93192479192609
ThF4,2,bottom-up,P2_1/c,2/m,monoclinic,6.0123,True,6.707981341008806,10.65171691988069,24.877281595302026
Y2I3,2,bottom-up,C2/m,2/m,monoclinic,0.5098,False,4.05037268,10.558579392726292,25.49656200840562
Mg2Co,2,bottom-up,P4/mmm,4/mmm,tetragonal,0.0,False,3.03584282,3.03584282,22.883476
TePd,2,bottom-up,P-3m1,-3m,trigonal,0.0,False,4.14907088,4.149070720493488,23.678874
Mg2Ir,2,bottom-up,P4/mmm,4/mmm,tetragonal,0.0,False,3.15527743,3.15527743,22.883476
Sb2Pd,2,bottom-up,P4/mmm,4/mmm,tetragonal,0.0,False,3.15736229,3.15736229,23.530469
Ca2Rh,2,bottom-up,P4/mmm,4/mmm,tetragonal,0.0,False,3.485537,3.485537,22.883476
AuCl,2,bottom-up,Pmma,mmm,orthorhombic,0.0,False,3.88868169,3.57543898,23.042555
La2C,2,bottom-up,P-3m1,-3m,trigonal,0.0,False,3.6995638,3.699563580270918,22.695846
InAs,2,bottom-up,P4/nmm,4/mmm,tetragonal,0.0,False,4.4486217,4.4486217,23.942319
TlS,2,bottom-up,P-3m1,-3m,trigonal,0.7833999999999999,False,4.01825,4.0182489987819325,24.623155
ReSe,2,bottom-up,P4/nmm,4/mmm,tetragonal,0.0,False,3.85710129,3.85710129,23.119205
Al2Fe,2,bottom-up,P4/mmm,4/mmm,tetragonal,0.0,False,2.84379759,2.84379759,22.704718
As2Pd,2,bottom-up,P4/mmm,4/mmm,tetragonal,0.0,False,2.91066022,2.91066022,23.530469
TlBi,2,bottom-up,P4/nmm,4/mmm,tetragonal,0.0,False,4.78721749,4.78721749,23.942319
TeAu,2,bottom-up,P2/m,2/m,monoclinic,0.9262999999999999,False,3.981146,6.249123601550861,22.548045872228595
FeSn2,2,bottom-up,P4/mmm,4/mmm,tetragonal,0.0,False,3.064147,3.064147,22.803662
V2Se,2,bottom-up,P4/nmm,4/mmm,tetragonal,0.0,False,3.160533,3.160533,27.221538
AlBi,2,bottom-up,P4/nmm,4/mmm,tetragonal,0.0,False,4.33545643,4.33545643,23.942319
In2S5,2,bottom-up,P1,1,triclinic,1.6392,False,4.004097903123124,7.6871073615737275,24.086753094978594
NbSe3,2,bottom-up,P2_1/m,2/m,monoclinic,0.0,False,3.52457104,12.316886225422147,27.01174348418824
Ta2Se3,2,bottom-up,P2_1/m,2/m,monoclinic,0.0,False,3.36896085,9.879581492714822,23.99965881688542
TlCl,2,bottom-up,P4mm,4mm,tetragonal,1.9927000000000001,True,4.43555619,4.43555619,22.485034
PC,2,bottom-up,C2/m,2/m,monoclinic,2.1668000000000003,False,2.91948045,8.495708214412504,24.72771033053709
Bi2Te3,2,bottom-up,P2_1/m,2/m,monoclinic,1.0125999999999997,False,4.410812,10.969732654016005,26.22242902216682
IrF4,2,bottom-up,P4/mbm,4/mmm,tetragonal,0.7732999999999999,False,5.77333928090269,5.774554500524694,22.43109289998615
Nb2Te3,2,bottom-up,C2/m,2/m,monoclinic,0.0,False,3.486265034591849,10.566601112759914,24.972456624251315
V2Se3,2,bottom-up,P2_1/m,2/m,monoclinic,0.0,False,3.330078,9.33855178731863,24.002959404807587
Ta2Te,2,bottom-up,P4/nmm,4/mmm,tetragonal,0.0,False,3.47868966,3.47868966,27.221538
Ag2Se,2,bottom-up,P2_1,2,monoclinic,1.7607,False,5.789812,5.818853360245471,22.555932180339987
AgSe,2,bottom-up,P-1,-1,triclinic,0.0,False,3.879031248929815,6.198119705822565,25.307083694089943
HgBr2,2,bottom-up,P-4m2,-42m,tetragonal,2.0801999999999996,False,8.242863,8.242863,26.75385
GeS,2,bottom-up,P3m1,3m,trigonal,2.4592,False,3.49555204,3.4955813081982483,21.529288002436385
MnCl3,2,bottom-up,P-31m,-3m,trigonal,0.007100000000000328,True,6.107889463343783,6.107889128592709,22.05999109940677
ZrAu,2,bottom-up,P4/nmm,4/mmm,tetragonal,0.0,False,3.24757222,3.24757222,24.42588
FeC2,2,bottom-up,P4/mmm,4/mmm,tetragonal,0.0,False,2.86716703,2.86716703,22.803662
Nb2Se3,2,bottom-up,P2_1/m,2/m,monoclinic,0.0,False,3.427027148284939,9.920548594875637,24.165518056815774
Ca5Co,2,bottom-up,Pmc2_1,mm2,orthorhombic,0.0,False,6.70353271,7.44176074,25.78836
TiI2,2,bottom-up,P2_1/m,2/m,monoclinic,0.14369999999999994,False,3.73289542,6.636372598392141,24.430324567307593
BiBr4,2,bottom-up,P4/nbm,4/mmm,tetragonal,0.0,False,6.8032908104895276,6.839702278708494,22.462207291397753
ZrF,2,bottom-up,C2/m,2/m,monoclinic,0.0,False,3.297230916881938,3.2970103325672766,25.897687738899318
Si2Os,2,bottom-up,P4/mmm,4/mmm,tetragonal,0.0,False,2.93201813,2.93201813,22.803662
MoF2,2,bottom-up,P2_1/c,2/m,monoclinic,2.7084,True,4.097964,6.125973505398958,21.59635106582371
SI,2,bottom-up,P-1,-1,triclinic,1.4148,False,4.336768121559988,9.569363986600008,25.777816565536007
Cr3S4,2,bottom-up,P-3m1,-3m,trigonal,0.0,False,3.434512,3.436919060294845,29.269724759574764
Y2I5,2,bottom-up,P2_1/m,2/m,monoclinic,0.1500999999999999,False,4.160298,16.603269497266677,26.50036712749891
SiBi,2,bottom-up,C2/m,2/m,monoclinic,1.185,True,4.168061,12.01788769625869,24.72719577757779
Al3Rh,2,bottom-up,P-6m2,-6m2,hexagonal,0.0,False,4.09542395,4.095423635759255,25.130912
PdSe,2,bottom-up,P4/nmm,4/mmm,tetragonal,0.0,False,4.279657,4.279657,22.999467
Ba5Sc,2,bottom-up,P1,1,triclinic,0.0,False,4.2625903700417895,7.766245837098128,25.323383510408775
Au2S,2,bottom-up,P4/nmm,4/mmm,tetragonal,1.1375000000000002,True,5.788606,5.788528248079991,22.548646646499964
Al2S3,2,bottom-up,P-62m,-6m2,hexagonal,3.6356,True,6.3665353,6.3665353399321,20.011829
VBr3,2,bottom-up,P-31m,-3m,trigonal,0.0009999999999998899,False,6.369836,6.369835312427237,22.719179
SnBr3,2,bottom-up,P1,1,triclinic,1.6345000000000005,False,6.202751176283239,8.532734244182757,24.086515452568943
Ga2S3,2,bottom-up,P-62m,-6m2,hexagonal,2.7453999999999996,True,6.34538836,6.345388406212781,20.011829
Al2S5,2,bottom-up,C2/m,2/m,monoclinic,1.7116000000000002,False,3.57374,7.17004803390842,24.100663120879744
AsF4,2,bottom-up,P1,1,triclinic,4.3115000000000006,True,6.082809163033228,5.465435487741302,22.37009335788756
BaAg,2,bottom-up,P6/mmm,6/mmm,hexagonal,0.0,False,4.82356764,4.823567377496833,24.159589
SiF4,2,bottom-up,P4/mmm,4/mmm,tetragonal,6.6934000000000005,False,3.582350949163133,3.582276,23.818262159795058
SrCl2,2,bottom-up,P-4m2,-42m,tetragonal,5.3521,True,4.776541,4.776541,22.656191
CuBr,2,bottom-up,P-3m1,-3m,trigonal,1.6474,False,3.8967176300000004,3.8967177618027473,23.814717
Bi9Cl2,2,bottom-up,P2_1/m,2/m,monoclinic,0.0,False,4.41948419,13.097073774799796,34.94870557268506
TiI2,2,bottom-up,P2_1/m,2/m,monoclinic,0.1431,False,3.732612,6.633713750956171,24.41539645834038
P2Pd,2,bottom-up,P2_1/m,2/m,monoclinic,0.0121,False,3.2285921254364105,4.441651437587713,24.51469188342713
GaS,2,bottom-up,P-1,-1,triclinic,2.33,False,3.6187166772205313,10.980131478622877,25.608435049939327
SiP3,2,bottom-up,P-3m1,-3m,trigonal,0.0,False,6.87159511,6.8715956381191265,21.680164
SiSb,2,bottom-up,C2/m,2/m,monoclinic,1.4905000000000002,False,4.02123043,11.637751468265039,24.727725978826882