Formula,No. of Elements,Discovery Process,Space Group,Point Group,Crystal System,Band Gap,Is Gap Direct?,a,b,c
V2Se3,2,bottom-up,P2_1/m,2/m,monoclinic,0.0,False,3.334007272163828,9.337210845255658,24.16059745968148
P2S3,2,bottom-up,P2_1/m,2/m,monoclinic,0.3965000000000001,False,3.38815385,8.875865173207037,26.23471685948387
AlSe,2,bottom-up,P-3m1,-3m,trigonal,2.0784,False,3.79050862,3.790508518797147,24.623155
Tl2O3,2,bottom-up,P-62m,-6m2,hexagonal,0.9471000000000003,True,6.267519,6.26751816742329,15.153703
Si3Ni,2,bottom-up,P4/mbm,4/mmm,tetragonal,0.0,False,5.29959701,5.29984273,24.617715
Y2S3,2,bottom-up,C2,2,monoclinic,2.4571000000000005,True,7.514957307557383,7.065829740393671,20.13640522800935
TeAu2,2,bottom-up,P2_1,2,monoclinic,0.9866000000000001,True,5.79678551,5.797606265559972,22.553749137406754
CuTe,2,bottom-up,P-1,-1,triclinic,0.0,False,3.931023270659562,6.531507319992377,25.443790412301446
Ge2Os,2,bottom-up,P4/mmm,4/mmm,tetragonal,0.0,False,3.018678,3.018678,22.803662
BI,2,bottom-up,Pbcm,mmm,orthorhombic,0.8218999999999999,True,5.724668,5.671587,23.094001
GaF,2,bottom-up,P4/nmm,4/mmm,tetragonal,2.9566,False,3.48138688,3.50388343,23.633843
TiI,2,bottom-up,P-3m1,-3m,trigonal,0.0,False,3.56197121,3.5619713511875934,26.166721
ClO3,2,bottom-up,P-1,-1,triclinic,1.1160999999999994,False,6.758821226320607,5.698875752398275,22.707778863929008
GaBr,2,bottom-up,P4mm,4mm,tetragonal,2.0897999999999994,False,4.22526334,4.22526334,22.485034
AsCl3,2,bottom-up,C2/m,2/m,monoclinic,2.964,False,6.321822806705586,6.3218223216955245,23.53903762684325
Tb5F8,2,bottom-up,P2/m,2/m,monoclinic,0.0,False,3.4894721,11.202515611859802,26.18704969627745
InBr,2,bottom-up,P4/nmm,4/mmm,tetragonal,2.4821999999999997,False,6.4825195,6.4787394,23.140016
AuF,2,bottom-up,P4/nmm,4/mmm,tetragonal,0.0,False,3.87155761,3.87155761,23.624099
Al4S3,2,bottom-up,Pmn2_1,mm2,orthorhombic,0.8611,False,3.55133531,11.05300984,30.194773
HfF,2,bottom-up,P-3m1,-3m,trigonal,0.0,False,3.21285097,3.2128516355576706,26.166721
SbCl3,2,bottom-up,P2_1/c,2/m,monoclinic,3.3375999999999997,False,8.168205173588394,9.20000728,24.54739375442742
PCl3,2,bottom-up,C2/m,2/m,monoclinic,2.5915999999999997,False,6.113216426417358,6.1132167422170625,23.541114000059302
Be2Ir,2,bottom-up,P4/mmm,4/mmm,tetragonal,0.0,False,2.828171,2.828171,20.042799
TiBr2,2,bottom-up,P2_1/m,2/m,monoclinic,0.2584000000000002,False,3.43102046,6.177983145816907,24.411866057179193
Al2Se,2,bottom-up,P3,3,trigonal,0.1462000000000001,True,10.814724,10.814724243424795,23.381968
SiSe,2,bottom-up,P3m1,3m,trigonal,2.0881999999999996,False,3.53560382,3.5354500619246325,21.529288174869826
HfF2,2,bottom-up,P2_1/m,2/m,monoclinic,1.4085999999999999,False,2.97972447,6.18651581324316,25.045813964496123
GeAs3,2,bottom-up,P-3m1,-3m,trigonal,0.0,False,7.45071713,7.450717580826853,21.680164
AlS,2,bottom-up,P-1,-1,triclinic,1.9176000000000002,False,3.5987615253104965,10.918254241105283,25.606320080373965
AlBr3,2,bottom-up,Pmc2_1,mm2,orthorhombic,3.0793,True,7.09031131,6.56221514,22.61305
Ag18Se11,2,bottom-up,P1,1,triclinic,0.0,False,4.699902767161574,4.045428037098106,52.47079930900789
Ca2Sb,2,bottom-up,P-3m1,-3m,trigonal,0.0,False,4.59794526,4.59794609106377,23.013137
HfHg,2,bottom-up,P4/nmm,4/mmm,tetragonal,0.0,False,3.17317304,3.17317304,26.632396
Sb2S3,2,bottom-up,Pc,m,monoclinic,1.7667000000000002,False,4.328983246517164,12.440431739240529,23.079365
RhO2,2,bottom-up,P-3m1,-3m,trigonal,0.0,False,3.09448485,3.094484612178316,21.887078
AlSe,2,bottom-up,P-6m2,-6m2,hexagonal,1.9297,False,3.778631,3.7786303710901654,25.019273
TbI3,2,bottom-up,Pmmn,mmm,orthorhombic,1.9985,False,4.15924152,9.99094046,23.980671
YBr,2,bottom-up,P-3m1,-3m,trigonal,0.0,False,3.80025988,3.8002599853194043,25.800091
NdBr2,2,bottom-up,P4/mmm,4/mmm,tetragonal,0.0,False,3.63360929,3.63360929,23.775734
NdI3,2,bottom-up,Pmmn,mmm,orthorhombic,1.8924999999999998,False,4.30118486,10.00986215,24.388929
VBr5,2,bottom-up,P-1,-1,triclinic,0.45619999999999994,False,6.383694398907141,6.824930181682452,31.449597393531352
Sr5Rh,2,bottom-up,Pmc2_1,mm2,orthorhombic,0.0,False,7.20966702,8.04595184,25.78836
SmF3,2,bottom-up,Pmmn,mmm,orthorhombic,7.0773,True,3.537938,7.090181,24.348355
SeO2,2,bottom-up,P2_1/c,2/m,monoclinic,2.6635,False,5.44574054,5.446288851859589,24.12575156254772
SbF3,2,bottom-up,C2/m,2/m,monoclinic,2.7231,True,5.234304225806669,5.234303483651031,23.53187285364015
CCl3,2,bottom-up,P1,1,triclinic,1.25,False,5.441113178771064,8.086795615909914,24.056253336791368
NiAs2,2,bottom-up,P-3,-3,trigonal,0.0,False,6.470636310000589,6.470636917083203,22.860006
BaF2,2,bottom-up,P-4m2,-42m,tetragonal,5.7381,False,4.51010511,4.51010511,22.656191
TlAs3,2,bottom-up,P-3m1,-3m,trigonal,0.0,False,8.10667434,8.10667424590855,21.198253
Ru4Se5,2,bottom-up,P4/n,4/m,tetragonal,0.0,False,8.609635794566522,8.61127126799726,22.535200299076376
As4Br,2,bottom-up,P2/m,2/m,monoclinic,0.0,False,3.74169512,11.307613969780723,33.74497248418575
Al4Te3,2,bottom-up,Pmn2_1,mm2,orthorhombic,0.8599000000000001,False,4.09665541,11.80081752,30.194773
VTe3,2,bottom-up,P2_1/m,2/m,monoclinic,0.0,False,3.57083466,13.224976569239573,27.009186196545045
DyBr3,2,bottom-up,Pmmn,mmm,orthorhombic,2.917,False,3.90640155,9.08963357,23.944354
C3Br8,2,bottom-up,P1,1,triclinic,0.06489999999999996,False,5.92740564473613,5.949969867626829,34.22593172113443
Nb6O13,2,bottom-up,Pmma,mmm,orthorhombic,0.0,False,3.87431832,12.870277353203317,28.18081600425773
NF3,2,bottom-up,C2/m,2/m,monoclinic,0.0,False,6.002077493206162,6.002076240513552,24.51065290781246
U2Se5,2,bottom-up,P2/m,2/m,monoclinic,0.0,False,3.982260133148711,5.669484024562474,33.934845135287944
Te3N2,2,bottom-up,Pc,m,monoclinic,0.9650000000000001,False,4.5299891291482535,10.479713520571895,23.079365
Se3N2,2,bottom-up,P2_1/m,2/m,monoclinic,0.05349999999999966,False,3.56927329,9.243087813188685,24.95945659549724
Bi2Te5,2,bottom-up,P2_1/c,2/m,monoclinic,0.5878000000000001,False,8.99823612,7.834603058675106,32.02042835831225
Te5P2,2,bottom-up,P2_1/c,2/m,monoclinic,0.0,False,7.56046671,8.404968197280013,32.14376121795535
CrI2,2,bottom-up,P4/mbm,4/mmm,tetragonal,0.0,False,12.76626041,12.76955563,28.91679
NbS2,2,bottom-up,P-1,-1,triclinic,0.15280000000000005,False,12.257838698648808,12.259329207958437,23.733082278227595
BrO2,2,bottom-up,P2_1/c,2/m,monoclinic,1.4287999999999998,True,6.69614029,8.207275614293831,24.529910015800926
Te5N2,2,bottom-up,P2_1/c,2/m,monoclinic,0.0,False,7.49839508,7.06506913789778,32.09762784597978
In2Te,2,bottom-up,P3,3,trigonal,0.9988,False,12.93972139,12.939722183284422,23.381968
Ga2Te,2,bottom-up,P3,3,trigonal,0.9965000000000002,False,12.30711849,12.30711872845598,23.381968
In2Se,2,bottom-up,P3,3,trigonal,0.8420000000000001,True,12.06993004,12.06992906151507,23.56451
In2Te,2,bottom-up,P3,3,trigonal,0.978,False,12.92935293000002,12.929351791979144,23.56451
Ga2Te,2,bottom-up,P3,3,trigonal,1.0172,False,12.318017500000105,12.318017431690969,23.56451
B2Se,2,bottom-up,P3,3,trigonal,0.9670000000000001,False,9.802095970000018,9.80209651680948,23.56451
PbN,2,bottom-up,C2/m,2/m,monoclinic,0.0,False,3.69063499,10.203403914712375,25.35733863798997
As2Se5,2,bottom-up,P2_1/c,2/m,monoclinic,0.9557,False,9.11037258,6.644685436862513,32.13603617634877
MnI3,2,bottom-up,P-3m1,-3m,trigonal,0.2581000000000002,True,12.99517306,12.995172707930227,26.856058
VS2,2,bottom-up,P-1,-1,triclinic,0.01570000000000027,True,11.54658078753425,11.554370005982436,23.728980971506427
Al2Se,2,bottom-up,P3,3,trigonal,0.29900000000000015,True,10.411347680002589,10.411347686638091,23.56451
Ga2Se,2,bottom-up,P3,3,trigonal,1.0503,False,11.462276250000002,11.462276537079466,23.56451
PCl3,2,bottom-up,Pmn2_1,mm2,orthorhombic,4.0206,True,6.0495491,9.53538417,23.123083
Ta3Br8,2,bottom-up,P3m1,3m,trigonal,0.2751999999999999,False,7.07733181,7.077333068413015,23.495154
InCl,2,bottom-up,Pbcm,mmm,orthorhombic,2.9553000000000003,True,6.03146632,6.19871977,23.094001
NiSn4,2,bottom-up,P4/nbm,4/mmm,tetragonal,0.0,False,6.38250457,6.38250457,23.084874
Be5Rh,2,bottom-up,Pmc2_1,mm2,orthorhombic,0.0,False,4.52686557,4.34704509,25.78836
ZnCl2,2,bottom-up,P31m,3m,trigonal,4.5393,False,6.18736376,6.187364046987655,23.168642
Ca2Co,2,bottom-up,P4/mmm,4/mmm,tetragonal,0.0,False,3.45488411,3.45488411,22.883476
PdPb4,2,bottom-up,P4/nbm,4/mmm,tetragonal,0.0,False,6.80281118,6.81822832,22.903963
CoPb4,2,bottom-up,P4/nbm,4/mmm,tetragonal,0.0,False,6.55973565,6.55973565,22.924308
La2Br3,2,bottom-up,C2/m,2/m,monoclinic,0.2128,False,4.16657496,10.535347698662415,25.500322923166678
Ge3Rh,2,bottom-up,P4/mbm,4/mmm,tetragonal,0.0,False,5.78136855,5.78136855,25.635832
Ga4S3,2,bottom-up,Pmn2_1,mm2,orthorhombic,1.3251000000000002,False,3.61405718,10.83768548,30.194773
Ge2O3,2,bottom-up,P2_1/c,2/m,monoclinic,3.528,False,4.97466484,6.820216137867404,25.58409340848421
As4F,2,bottom-up,P2/m,2/m,monoclinic,0.0,False,3.71477807,11.04121144949659,33.705107459273414
WCl2,2,bottom-up,P4/mbm,4/mmm,tetragonal,2.8162000000000003,False,11.35801058,11.35945595,28.91679
Al2Se3,2,bottom-up,P-62m,-6m2,hexagonal,2.8606,True,6.704989,6.704989417926474,20.011829
Ba5Y,2,bottom-up,P1,1,triclinic,0.0,False,4.184417418106438,7.949724356465858,25.34417254585594
TeRh,2,bottom-up,P4/nmm,4/mmm,tetragonal,0.0,False,4.035094,4.035094,22.797818
ReI2,2,bottom-up,P-3m1,-3m,trigonal,0.0,False,4.0536824,4.053682644848011,23.003991
Al2Te3,2,bottom-up,P-62m,-6m2,hexagonal,0.0,False,13.20152601,13.201525444142554,20.011829
Au2Se,2,bottom-up,Pmma,mmm,orthorhombic,0.26049999999999995,False,4.706096,6.230603,23.070339
CaPb2,2,bottom-up,P-3m1,-3m,trigonal,0.0,False,3.5347682,3.5347681302061638,24.664279
Ba2Co,2,bottom-up,P4/mmm,4/mmm,tetragonal,0.0,False,3.75334776,3.75334776,22.883476
Mg2Zn,2,bottom-up,P4/mmm,4/mmm,tetragonal,0.0,False,3.09001473,3.09001473,23.983674
Ta3Cl8,2,bottom-up,P3m1,3m,trigonal,0.18310000000000004,False,6.726557,6.7265574064438045,24.052163
YCl2,2,bottom-up,P-6m2,-6m2,hexagonal,0.3954000000000002,False,3.711936,3.711935243767596,23.825805
TcCl2,2,bottom-up,P-3m1,-3m,trigonal,0.0,False,3.427057,3.4270563843491106,23.003991
ZnF2,2,bottom-up,P31m,3m,trigonal,4.664899999999999,True,5.471014080000001,5.471013906788582,23.168642
TeIr,2,bottom-up,P4/nmm,4/mmm,tetragonal,0.0,False,4.064969,4.064969,22.797818
BaBr2,2,bottom-up,P-4m2,-42m,tetragonal,4.628399999999999,True,5.25550051,5.25550051,22.656191
Te2Pd,2,bottom-up,P2_1/c,2/m,monoclinic,1.2694,False,6.067853929826902,6.42728245299721,21.105736063146388
NbBr3,2,bottom-up,P-31m,-3m,trigonal,0.0,False,6.18110338,6.1811035862675885,22.719179
Ba2Bi,2,bottom-up,P-3m1,-3m,trigonal,0.0,False,5.030922,5.030922277900942,22.747784
HfC2,2,bottom-up,P4/nmm,4/mmm,tetragonal,0.0,False,3.07713,3.077687,25.781726
InSb,2,bottom-up,P-6m2,-6m2,hexagonal,0.0,False,4.75986135,4.75986318555963,20.0
Ca2Zn,2,bottom-up,P4/mmm,4/mmm,tetragonal,0.0,False,3.59094709,3.59094709,23.983674
HfZn,2,bottom-up,P4/nmm,4/mmm,tetragonal,0.0,False,3.049419,3.049419,26.632396
AuBr2,2,bottom-up,P2_1/c,2/m,monoclinic,0.0,False,4.145338,7.066122016852667,21.741306346451402
RuI3,2,bottom-up,P-31m,-3m,trigonal,0.13090000000000002,False,6.84550832,6.845509890158041,22.566854
TlSb,2,bottom-up,P-6m2,-6m2,hexagonal,0.0,False,4.903611,4.903612745083057,20.0
BeF2,2,bottom-up,P-4m2,-42m,tetragonal,8.681099999999999,False,2.7141868,2.7141868,22.656191
TmF2,2,bottom-up,P-3m1,-3m,trigonal,0.0,False,3.25428207,3.254282194199337,23.842566
In2Te3,2,bottom-up,P321,32,trigonal,0.0,False,20.06484157,20.064841780667912,20.011829
AuI2,2,bottom-up,P2_1/c,2/m,monoclinic,0.0,False,4.41225196,7.379503656367464,21.757131810910035
PuI3,2,bottom-up,P-6m2,-6m2,hexagonal,0.0,False,5.44048906,5.440488785098764,24.728211
NdSn2,2,bottom-up,P4/mmm,4/mmm,tetragonal,0.0,False,3.86138982,3.86138982,22.598526
CuS,2,bottom-up,P2/m,2/m,monoclinic,0.6829000000000005,False,3.31726136,5.4956410846261,22.537685336044593
GaCl,2,bottom-up,P4/nmm,4/mmm,tetragonal,3.0477000000000003,False,5.93878031,5.94041605,23.140016
TbF,2,bottom-up,P-3m1,-3m,trigonal,0.0,False,3.57713935,3.577138594077883,26.638503
SmSn2,2,bottom-up,P4/mmm,4/mmm,tetragonal,0.0,False,3.31154954,3.31154954,22.592014
CrS2,2,bottom-up,P2_1/m,2/m,monoclinic,0.0,False,3.011508,5.474975256704362,24.143455403921948
AlP,2,bottom-up,P4/nmm,4/mmm,tetragonal,1.0532999999999997,False,3.96009277,3.96009277,23.942319
YC3,2,bottom-up,P-6m2,-6m2,hexagonal,0.0,False,4.781889,4.781888445092065,20.0
CaAg,2,bottom-up,P6/mmm,6/mmm,hexagonal,0.0,False,4.671025,4.671024480049318,24.159589
IrS,2,bottom-up,P4/nmm,4/mmm,tetragonal,0.0,False,3.876355,3.876355,22.797818
InCl,2,bottom-up,P4/nmm,4/mmm,tetragonal,2.8946,False,6.12884379,6.1276614,23.140016
TiSn2,2,bottom-up,P4/nmm,4/mmm,tetragonal,0.0,False,4.00810952,4.02664325,25.781726
V3I8,2,bottom-up,P-3m1,-3m,trigonal,0.01059999999999972,False,8.027976,8.027976208173943,23.495154
V3F8,2,bottom-up,P-3m1,-3m,trigonal,0.001300000000000523,False,6.36219729,6.362197135336198,24.052163
PdI2,2,bottom-up,P-3m1,-3m,trigonal,0.0,False,4.06769511,4.067695943789381,22.803068
NdSi2,2,bottom-up,P4/mmm,4/mmm,tetragonal,0.0,False,4.04995654,4.04995654,22.598526
PrPb5,2,bottom-up,Pmmm,mmm,orthorhombic,0.0,False,4.44964017,7.06272839,23.394498
Sb3C,2,bottom-up,P-3m1,-3m,trigonal,0.0,False,7.56478083,7.564781748026109,21.405434
TiC2,2,bottom-up,P4/nmm,4/mmm,tetragonal,0.0,False,2.848849,2.849868,25.781726
Ge3Ir,2,bottom-up,P4/mbm,4/mmm,tetragonal,0.0,False,5.819241,5.819241,25.635832
TlBi3,2,bottom-up,P-3m1,-3m,trigonal,0.0028999999999999027,True,9.15615847,9.156158733393855,21.198253
InBi,2,bottom-up,P-6m2,-6m2,hexagonal,0.0,False,4.948669,4.948670922363903,20.0
UCl3,2,bottom-up,Pmmn,mmm,orthorhombic,0.09420000000000006,False,3.798591,8.6323,24.951193
InAs,2,bottom-up,P-6m2,-6m2,hexagonal,0.0,False,4.439163,4.439164543071252,20.0
SrI2,2,bottom-up,P-3m1,-3m,trigonal,4.0722000000000005,False,4.73104,4.731039650411102,22.742717
NdF2,2,bottom-up,P4/mmm,4/mmm,tetragonal,0.0,False,3.14531683,3.14531683,23.775734
Sr5Tm,2,bottom-up,P1,1,triclinic,0.0,False,4.067565691365943,7.805291525062299,25.464491258382115
AlBi,2,bottom-up,P-6m2,-6m2,hexagonal,0.0,False,13.73454783,13.734554312647338,20.0
YF,2,bottom-up,P-3m1,-3m,trigonal,0.0,False,3.575376,3.575375615414414,26.854569
PtPb3,2,bottom-up,P4/mbm,4/mmm,tetragonal,0.0,False,6.6718956,6.67199481,25.862687
TaBr4,2,bottom-up,P4/mmm,4/mmm,tetragonal,0.0,False,5.187725,5.187725,23.812503
Ca5Tm,2,bottom-up,P1,1,triclinic,0.0,False,3.773060360826076,7.265132245118874,25.47950683764829
GaP,2,bottom-up,P4/nmm,4/mmm,tetragonal,0.0,False,3.959095,3.959095,23.942319
AuCl2,2,bottom-up,P2_1/c,2/m,monoclinic,0.0,False,4.017859,6.702476042538459,21.68095846876037
As3Pb,2,bottom-up,P-3m1,-3m,trigonal,0.41880000000000006,False,7.73660725,7.736606885845312,21.405434
SbBr3,2,bottom-up,P-31m,-3m,trigonal,2.4434,False,7.03394581,7.03394482977616,23.649843
Ca2Cd,2,bottom-up,P4/mmm,4/mmm,tetragonal,0.0,False,3.717518,3.717518,23.983674
GeCl3,2,bottom-up,P1,1,triclinic,2.7874000000000003,False,6.030818199010479,8.949895661822042,24.253968780667464
B2O,2,bottom-up,P3m1,3m,trigonal,0.0,False,2.276554,2.276553482907441,23.020983
Ga3Co,2,bottom-up,P-6m2,-6m2,hexagonal,0.0,False,3.96449479,3.9644937434739025,25.130912
WBr2,2,bottom-up,R-3m,2/m,trigonal,0.0,False,3.290043,5.711494208564516,21.223692212207965
MgAg,2,bottom-up,P6/mmm,6/mmm,hexagonal,0.0,False,4.613575,4.6135746181348365,24.159589
SiI3,2,bottom-up,P1,1,triclinic,1.2711000000000001,True,6.818332299666748,9.8630419432475,24.36889088174511
TiI3,2,bottom-up,P-31m,-3m,trigonal,0.0,False,6.9180576,6.918057048823331,23.034941
EuN2,2,bottom-up,Amm2,mm2,orthorhombic,0.0,False,3.0309404,4.011824963098156,23.17472703650534
CePb5,2,bottom-up,Pmmm,mmm,orthorhombic,0.0,False,4.37243113,7.07439348,23.338286
Be2Zn,2,bottom-up,P4/mmm,4/mmm,tetragonal,0.0,False,2.380569,2.380569,23.983674
BiI3,2,bottom-up,Pmn2_1,mm2,orthorhombic,1.6791,False,6.92237384,8.53865073,23.123083
BN,2,bottom-up,P4/nmm,4/mmm,tetragonal,4.9935,False,2.77978109,2.77978109,23.942319
AlCl,2,bottom-up,P4mm,4mm,tetragonal,0.0,False,3.467018,3.467018,22.485034
PtS2,2,bottom-up,P2_1/c,2/m,monoclinic,1.9371999999999998,False,5.44719009,5.548703668113415,21.475744758493963
GeP2,2,bottom-up,Pmc2_1,mm2,orthorhombic,1.3179999999999998,False,3.53374738,10.19165922,26.206012
Zr3Se2,2,bottom-up,P4/mmm,4/mmm,tetragonal,0.0,False,3.63402606,3.63402606,26.086724
Se4O9,2,bottom-up,P-3,-3,trigonal,1.7265000000000001,False,9.03713939,9.037139196449736,22.777828
CoCl3,2,bottom-up,C2/m,2/m,monoclinic,1.2861000000000002,False,5.7542625342131375,5.7542622937504335,22.8588985693903
Mg2Bi,2,bottom-up,P-3m1,-3m,trigonal,0.0,False,5.03153271,5.0315331049546925,23.013137
GaBr,2,bottom-up,Pbcm,mmm,orthorhombic,2.6262,False,6.22701841,6.2373878,23.094001
BI,2,bottom-up,Aem2,mm2,orthorhombic,0.5448,False,5.715652,5.574013,23.140016
Sr2Bi,2,bottom-up,P-3m1,-3m,trigonal,0.0,False,4.880908,4.880907221542835,23.013137
MgF2,2,bottom-up,P-3m1,-3m,trigonal,7.5159,False,3.09775205,3.09775216880823,23.529845
PbI3,2,bottom-up,P1,1,triclinic,1.7547000000000001,False,6.556841187048371,8.489218512549233,24.429666419464166
CuBr2,2,bottom-up,P2_1/c,2/m,monoclinic,0.0,False,3.85991205,6.336310341868257,21.525813287533516
AgBr2,2,bottom-up,P2_1/c,2/m,monoclinic,0.0,False,4.14362174,6.783373630506203,21.552942308270648
CuF,2,bottom-up,Pmma,mmm,orthorhombic,0.0,False,3.20925003,2.72908258,23.042555
B2Se,2,bottom-up,P3,3,trigonal,1.7287000000000001,False,7.86652176,7.866522405268657,23.381968
ScF3,2,bottom-up,P-31m,-3m,trigonal,6.712999999999999,False,5.591430700000032,5.591430488875457,28.254646
NbF2,2,bottom-up,P-3m1,-3m,trigonal,0.0,False,2.84778127,2.8477810224870317,22.903114
Tl2Se3,2,bottom-up,P-62m,-6m2,hexagonal,0.24140000000000006,True,7.13749600000007,7.137492527142848,20.011829
GaSb,2,bottom-up,P-6m2,-6m2,hexagonal,0.0,False,4.45509883,4.455099969072807,20.0
Al2O,2,bottom-up,P-3m1,-3m,trigonal,0.0,False,2.7507656,2.7507652713811734,23.020983
CaSi2,2,bottom-up,P-3m1,-3m,trigonal,0.0,False,3.08539351,3.0853932474051766,24.445951
NiSb2,2,bottom-up,P-3,-3,trigonal,0.0,False,6.822544860000002,6.82254551515838,22.860006
AlN,2,bottom-up,P4/nmm,4/mmm,tetragonal,3.4793000000000003,False,3.63950338,3.63950338,23.942319
NbS,2,bottom-up,P4/nmm,4/mmm,tetragonal,0.0,False,3.877482,3.877482,23.448734
GdF3,2,bottom-up,C2/m,2/m,monoclinic,4.1066,False,6.26558183302814,6.2655816602786745,23.28961249659809
Be2As,2,bottom-up,P6/mmm,6/mmm,hexagonal,0.0,False,3.948729,3.9487295733216525,23.013137
GaI,2,bottom-up,P4/nmm,4/mmm,tetragonal,2.2474,True,6.608478,6.608994,23.140016
ZrCl3,2,bottom-up,P-1,-1,triclinic,0.3671000000000002,False,6.213341405387764,6.211286938493021,24.10940171042322
HfCl3,2,bottom-up,P-1,-1,triclinic,0.33589999999999987,False,6.1164314237493915,6.099015569635726,24.037133416067856
Y2Sn,2,bottom-up,P-3m1,-3m,trigonal,0.0,False,4.163645,4.163643587499416,22.46647
AgI2,2,bottom-up,P2_1/c,2/m,monoclinic,0.0,False,4.31140807,7.133737774997975,21.496272658607495
Sc2Cl5,2,bottom-up,P2_1/m,2/m,monoclinic,0.27549999999999986,False,3.52814829,14.066570164851305,27.077167668009647
Ca2As,2,bottom-up,P-3m1,-3m,trigonal,0.0,False,4.283451,4.283451785319872,23.013137
Ba5Tm,2,bottom-up,P1,1,triclinic,0.0,False,4.254811701153333,7.9122075864371295,25.467898595678488
NbCl5,2,bottom-up,P1,1,triclinic,0.5571999999999999,False,7.1938891846961655,7.931353815921252,23.96956254168892
SrSn2,2,bottom-up,P-3m1,-3m,trigonal,0.0,False,3.573827,3.5738267753479604,24.664279
V2S3,2,bottom-up,C2/m,2/m,monoclinic,0.266,False,3.0836071761651156,9.221482313906044,24.97662017561584
InI3,2,bottom-up,Pmc2_1,mm2,orthorhombic,1.1004,True,7.78092506,7.63882058,22.61305
Tc3Cl8,2,bottom-up,Cm,m,monoclinic,0.037900000000000045,False,6.792374873061556,6.77391040625509,22.168141557774234
SmPb2,2,bottom-up,P4/mmm,4/mmm,tetragonal,0.0,False,3.841389,3.841389,22.592014