Formula,No. of Elements,Discovery Process,Space Group,Point Group,Crystal System,Band Gap,Is Gap Direct?,a,b,c
SrLi,2,bottom-up,P2_1/m,2/m,monoclinic,0.0,False,4.02898266720372,4.031265,26.06608084422378
K2Cl,2,bottom-up,P-3m1,-3m,trigonal,0.0,False,4.406336,4.406335574816108,23.407847
As2O3,2,bottom-up,P1,1,triclinic,0.19150000000000006,False,3.8889114220306245,2.9147537896830262,38.45926762483449
C2O3,2,bottom-up,P2_1/m,2/m,monoclinic,2.9286000000000003,False,4.6859351112435395,6.401895,25.956298729525383
Be2Sb,2,bottom-up,P-4m2,-42m,tetragonal,0.0,False,4.226731,4.223531,22.957399
Br4N,2,bottom-up,P1,1,triclinic,0.22020000000000017,False,5.127546435208753,7.2998557849022605,22.48119882075411
Ca2Bi,2,bottom-up,Pmm2,mm2,orthorhombic,0.0,False,4.97349648,5.26665744,22.957399
Al2Se3,2,bottom-up,P1,1,triclinic,0.0,False,3.8571316329714493,6.832616667480256,29.436694217387743
AsCl3,2,bottom-up,P-6m2,-6m2,hexagonal,1.1698999999999993,True,4.60074429,4.60074357609808,24.623946
TiSe2,2,bottom-up,P4/mmm,4/mmm,tetragonal,0.0,False,3.14401771,3.14401771,22.61712
CuSe2,2,bottom-up,Pmm2,mm2,orthorhombic,0.0,False,2.998784,5.579457685888566,22.83036817625213
AsF3,2,bottom-up,P-6m2,-6m2,hexagonal,2.0091,False,3.916455,3.9164547972605277,24.623946
Ba2Sb,2,bottom-up,P-4m2,-42m,tetragonal,0.0,False,5.31111502,5.32456254,22.957399
CaCl2,2,bottom-up,P-1,-1,triclinic,5.6205,False,8.00431793959048,8.052954242452454,23.514063968069536
PBr5,2,bottom-up,Pmma,mmm,orthorhombic,0.0,False,3.71755142,14.60959485,23.858436
PSe,2,bottom-up,C2/m,2/m,monoclinic,0.0,False,4.06508222028571,4.065082628710762,23.278989073951667
LuN2,2,bottom-up,C222,222,orthorhombic,0.0,False,3.574783,3.7491138927912018,25.031709
BiI3,2,bottom-up,P-6m2,-6m2,hexagonal,0.8815000000000004,True,5.52656029,5.526559273459808,24.623946
CrAs,2,bottom-up,C2/m,2/m,monoclinic,0.0,False,3.118800323161135,3.1178439156093107,23.71538783726804
B2O3,2,bottom-up,P321,32,trigonal,4.480300000000001,False,4.39440605,4.394406187735037,24.184471
MoP,2,bottom-up,C2/m,2/m,monoclinic,0.0,False,3.1849253286408463,3.1847452723784677,23.631586521978463
MoAs2,2,bottom-up,P-1,-1,triclinic,0.0,False,4.464438779918853,6.193120660308816,22.583141775298337
Sr2N,2,bottom-up,P-4m2,-42m,tetragonal,0.0,False,4.00577223,4.01935397,22.957399
VF5,2,bottom-up,Pmmm,mmm,orthorhombic,0.32310000000000016,False,3.554511,4.444638,23.745806
Bi2O3,2,bottom-up,Pmmn,mmm,orthorhombic,2.4228,False,3.62433129,12.76022787,21.157874
SrF2,2,bottom-up,Pmma,mmm,orthorhombic,5.334499999999999,True,3.643614,6.800237,23.548695
Be2As,2,bottom-up,P-4m2,-42m,tetragonal,0.0,False,3.91212408,3.91373016,22.957399
SnC,2,bottom-up,P-6m2,-6m2,hexagonal,0.9468000000000001,False,3.5934670700000026,3.59346676137049,20.769747
LiMg,2,bottom-up,P2_1/m,2/m,monoclinic,0.0,False,3.0049451830973983,2.9457203,25.88572552913893
ReO2,2,bottom-up,Pmmn,mmm,orthorhombic,0.0,False,3.16226209,4.02912252,24.184989
Hf2O7,2,bottom-up,P1,1,triclinic,0.33060000000000045,False,6.530074663450317,6.521082651312275,30.930836894249985
RuO2,2,bottom-up,P-3m1,-3m,trigonal,0.0,False,3.06085367,3.060853636767503,21.943227
Ca2P,2,bottom-up,P-4m2,-42m,tetragonal,0.0,False,4.534766,4.536819,22.957399
AlBi,2,bottom-up,P2_1/m,2/m,monoclinic,0.0,False,4.305727,8.681904305163584,19.480598257708053
PdCl2,2,bottom-up,P-1,-1,triclinic,0.1593,False,4.6177485216213325,4.604799351394478,24.86692883884043
CrN,2,bottom-up,I4/mmm,4/mmm,tetragonal,0.0,False,2.650882686447591,2.6508614975793563,23.77031450411989
AlCl3,2,bottom-up,Pmma,mmm,orthorhombic,3.3129,True,4.704974756630704,6.75689413843172,22.97051509133819
As2O3,2,bottom-up,Pmmn,mmm,orthorhombic,3.0682,False,2.896384,13.583158,21.157874
Cd3Sb,2,bottom-up,P6/mmm,6/mmm,hexagonal,0.0,False,5.95686742,5.9568670885756605,20.0
SN,2,bottom-up,Pmc2_1,mm2,orthorhombic,0.0,False,4.489814,13.000103,23.134393
VCl4,2,bottom-up,P1,1,triclinic,0.0015999999999998238,False,6.813592374067789,5.98696181392288,22.58685397022386
SnI2,2,bottom-up,P-6m2,-6m2,hexagonal,1.9172,False,4.35224866,4.352249654736146,23.838
Ge2O5,2,bottom-up,Pnc2,mm2,orthorhombic,0.1711999999999998,True,4.56493691,5.62821283,24.876722
PO2,2,bottom-up,P1,1,triclinic,2.5951,False,5.165990419712846,6.770484072409558,33.303979476333964
In2S3,2,bottom-up,P1,1,triclinic,0.18999999999999995,False,3.997750998599089,6.939448228006307,29.44497771270921
BiN,2,bottom-up,P1,1,triclinic,1.4072,False,3.5190171786676463,3.7110362633697074,22.479763344473646
Nb2F5,2,bottom-up,P1,1,triclinic,0.15580000000000016,False,4.972393033925718,4.975804485454086,24.92823859993327
Ba2As,2,bottom-up,P-4m2,-42m,tetragonal,0.0,False,5.075656,5.086815,22.957399
SrI2,2,bottom-up,P-1,-1,triclinic,4.22,False,9.50222048486744,9.570025754160055,23.514411088122582
SbTe,2,bottom-up,Pc,m,monoclinic,0.0,False,6.355839634316004,19.664584054385244,23.120845
NO2,2,bottom-up,P1,1,triclinic,0.0,False,3.0863161890490094,3.4044120099769066,22.474507394609923
P2W,2,bottom-up,P-1,-1,triclinic,0.048900000000000166,False,4.283928597068578,6.065085483284671,22.584209343633947
InTe,2,bottom-up,P3m1,3m,trigonal,0.0,False,4.4937545,4.493754521329653,21.250951
As4Pb3,2,bottom-up,C2,2,monoclinic,0.0,False,4.7475908070139115,4.747590563134736,27.856293617088024
AuN6,2,bottom-up,Pmn2_1,mm2,orthorhombic,0.0,False,3.514579,9.5222,29.060994
TaO2,2,bottom-up,R-3m,2/m,trigonal,0.0,False,3.0555016528748595,5.27314057032543,21.957339555908177
NiAs,2,bottom-up,P-6m2,-6m2,hexagonal,0.0,False,3.84342656,3.8449587831995067,20.0
TlAs,2,bottom-up,P4/mbm,4/mmm,tetragonal,0.0,False,9.20783697,9.20783697,20.0
BeBr2,2,bottom-up,Pmma,mmm,orthorhombic,3.3015,True,3.63389618,5.91692391,23.548695
In2Se3,2,bottom-up,P1,1,triclinic,0.29520000000000013,False,4.129372563371049,7.134265895191013,29.448938228595196
CeS2,2,bottom-up,R3m,3m,trigonal,0.10810000000000031,False,3.90525336,3.905843103451438,23.42224158654151
RuSe2,2,bottom-up,Pcca,mmm,orthorhombic,0.0,False,5.733894505351318,6.3780047957332355,22.948958984066618
BiSe,2,bottom-up,Pmma,mmm,orthorhombic,0.0,False,6.03880531,15.69817609,23.134393
K2F,2,bottom-up,P-3m1,-3m,trigonal,0.0,False,3.97366958,3.9736692275501286,23.407847
Br5N,2,bottom-up,Pmma,mmm,orthorhombic,0.0,False,3.766048,12.202142,23.858436
SbSe,2,bottom-up,Pmc2_1,mm2,orthorhombic,0.0,False,6.022814,15.29683,23.134393
CdSe,2,bottom-up,P3m1,3m,trigonal,0.0,False,4.35713981,4.357140085000701,56.550342
HfBr4,2,bottom-up,P4/mmm,4/mmm,tetragonal,1.2773000000000003,False,5.3162018,5.3162018,23.891423
B2O3,2,bottom-up,P-3m1,-3m,trigonal,3.9055,False,2.4395221900038866,2.439517772927159,24.62923400007586
N2O3,2,bottom-up,P1,1,triclinic,0.0,False,3.773166128979481,3.6395645481477588,24.536104575187725
Ca2N,2,bottom-up,P-4m2,-42m,tetragonal,0.0,False,3.801525,3.804175,22.957399
Al2Se3,2,bottom-up,P1,1,triclinic,0.0,False,6.602561277804045,7.8080169387329885,38.33608868856232
WO3,2,bottom-up,Pc,m,monoclinic,1.7568999999999995,True,5.42994565,5.499793650632495,25.534073841747727
AsCl4,2,bottom-up,P1,1,triclinic,1.2403999999999993,True,6.137935099796184,8.053752034109692,22.548352556647394
Al2S3,2,bottom-up,P1,1,triclinic,2.1284,False,3.681654120627982,6.864532681091336,29.574457464502622
SeO3,2,bottom-up,P31m,3m,trigonal,1.0054999999999996,True,6.127564,6.127562558357606,23.517853
AuCl2,2,bottom-up,P-4m2,-42m,tetragonal,0.0,False,3.68660087,3.68660087,23.530221
AgN6,2,bottom-up,Pmn2_1,mm2,orthorhombic,0.0,False,3.442492,9.599108,29.060994
Ge2O3,2,bottom-up,P2_1/m,2/m,monoclinic,3.0274,False,6.267758914060192,3.712503,25.819192005611814
ZnTe,2,bottom-up,P3m1,3m,trigonal,0.0,False,4.36818856,4.3681888304165595,56.550342
Mo3O8,2,bottom-up,P-1,-1,triclinic,1.7561999999999998,True,4.996710593691214,5.376033696430948,25.60136567361855
Sn3N4,2,bottom-up,P3m1,3m,trigonal,0.39529999999999976,True,6.726791750021464,6.726739875351032,20.011135000592034
CuN3,2,bottom-up,Pccm,mmm,orthorhombic,0.22199999999999998,False,4.980664,5.813847,21.248852
TiAs2,2,bottom-up,P-3m1,-3m,trigonal,0.0,False,3.756516,3.756517118582318,21.950498
WC3,2,bottom-up,P-6m2,-6m2,hexagonal,0.0,False,4.214219,4.214218134159764,20.0
NbBr4,2,bottom-up,Pmna,mmm,orthorhombic,0.0,False,7.413640900977939,6.066145654520751,22.503542878568318
AlSb,2,bottom-up,P2_1/c,2/m,monoclinic,0.0,False,14.632802,4.415875884381037,17.30730509999003
TlSe,2,bottom-up,P3m1,3m,trigonal,0.009199999999999875,False,4.507325,4.507325023285089,21.250951
WN,2,bottom-up,C2/m,2/m,monoclinic,0.3536999999999999,True,2.821775125242088,2.8211139587301326,23.63527979368736
GaF3,2,bottom-up,Pmmm,mmm,orthorhombic,5.271699999999999,False,3.8182687999660234,5.906293444778811,22.969776387838895
CdS,2,bottom-up,P3m1,3m,trigonal,0.0,False,4.19293943,4.192939676679111,56.550342
SrI2,2,bottom-up,Pmma,mmm,orthorhombic,2.1959,True,4.57654938,8.26721271,23.548695
B2S3,2,bottom-up,P1,1,triclinic,0.0,False,5.766627827595085,5.669326813011753,37.257996231230166
CdSe,2,bottom-up,P3m1,3m,trigonal,0.0,False,4.33920549,4.339205308595692,56.585656
SiI4,2,bottom-up,P1,1,triclinic,0.0,False,6.466812845990365,8.091905716033832,22.69680049220497
PSe,2,bottom-up,Aem2,mm2,orthorhombic,0.0,False,6.057016899734335,17.162220800504624,23.120845
Au2S,2,bottom-up,P6/mmm,6/mmm,hexagonal,0.0,False,4.6312122,4.631211555152235,24.537695
ThSn2,2,bottom-up,P4/mmm,4/mmm,tetragonal,0.0,False,4.128074,4.128074,22.685916
SrBr2,2,bottom-up,P-1,-1,triclinic,4.8107,False,8.97201238733095,9.042189057699511,23.51687165587023
SiO2,2,bottom-up,P-3m1,-3m,trigonal,6.4019,False,5.41642169,5.416421882030491,22.029164
NaMg,2,bottom-up,P2_1/m,2/m,monoclinic,0.0,False,3.2234869899282983,3.180284,25.995106302905942
Ga2S3,2,bottom-up,P1,1,triclinic,0.03230000000000022,False,3.683033965194857,6.618109528317152,29.436997902726112
GaN,2,bottom-up,P4/mbm,4/mmm,tetragonal,2.0404999999999998,False,6.32821,6.32821,20.0
Sr2Sb,2,bottom-up,Pmm2,mm2,orthorhombic,0.0,False,5.19899078,5.38473349,22.957399
NbF5,2,bottom-up,Pmmm,mmm,orthorhombic,2.2157999999999998,False,3.745528,4.430539,23.745806
Ga2O3,2,bottom-up,Cm,m,monoclinic,2.6401,False,3.0177567672329455,5.2660556246766195,23.27647620456777
PtF2,2,bottom-up,P2_1/m,2/m,monoclinic,0.8752000000000004,False,3.5665450150270077,4.120433285220621,24.93295938464261
PS,2,bottom-up,Pmc2_1,mm2,orthorhombic,0.0,False,5.396577,13.691682,23.134393
TeN,2,bottom-up,Pmc2_1,mm2,orthorhombic,0.0,False,4.61888196,16.90786383,23.134393
OsS2,2,bottom-up,P2/c,2/m,monoclinic,0.0,False,5.509366644770455,6.346305163454342,22.958984084268643
AlN,2,bottom-up,P4/mbm,4/mmm,tetragonal,2.8133,False,6.165208,6.165208,20.0
MgBr2,2,bottom-up,Pmma,mmm,orthorhombic,3.4674,True,3.83902415,6.58155224,23.548695
P2O3,2,bottom-up,P1,1,triclinic,1.4503000000000001,False,3.980738684229348,3.727805165704077,38.379036383877555
AsS,2,bottom-up,Pc,m,monoclinic,0.0,False,5.528925070689295,17.17424080912613,23.120845
CaF2,2,bottom-up,P-1,-1,triclinic,6.2625,True,6.791528843159255,6.840421877289536,23.51235955201016
Ge3Ir,2,bottom-up,P-6m2,-6m2,hexagonal,0.0,False,4.07113208,4.071132343980868,24.981638
Na2I,2,bottom-up,P-3m1,-3m,trigonal,0.0,False,4.29638201,4.2963815745863885,23.407847
GaP,2,bottom-up,P4/mbm,4/mmm,tetragonal,0.8736999999999999,False,7.747659,7.747659,20.0
BiB,2,bottom-up,P4/mbm,4/mmm,tetragonal,0.0,False,7.71817731,7.71817731,20.0
NO2,2,bottom-up,P6/mmm,6/mmm,hexagonal,0.0,False,2.822561,2.8225616572647265,23.731552
Ga2S3,2,bottom-up,P1,1,triclinic,0.5611999999999999,False,6.028155253976253,7.975306344608414,38.9986997675249
As2W,2,bottom-up,P-1,-1,triclinic,0.0,False,4.45565397634455,6.1533700301356,22.587610016809148
PS,2,bottom-up,C2/m,2/m,monoclinic,0.0,False,3.5591840231263685,3.5591842453038307,23.300764420781803
GeBr4,2,bottom-up,P-1,-1,triclinic,0.0,False,5.768929807320551,7.630564134455381,22.65771351749709
BiO2,2,bottom-up,P6/mmm,6/mmm,hexagonal,0.3539000000000003,False,4.186166310000001,4.186166998500055,23.731552
MgCl2,2,bottom-up,C2/m,2/m,monoclinic,4.6768,True,3.823835770000005,6.952209607378958,24.833560597473635
NbSe2,2,bottom-up,Pmmm,mmm,orthorhombic,0.0,False,3.2646287695707454,3.548586,23.446308370548252
Zr2O7,2,bottom-up,P1,1,triclinic,0.5243000000000002,False,6.574672216682608,6.620311883838405,30.914264650140606
KMg,2,bottom-up,P2_1/m,2/m,monoclinic,0.0,False,3.758443816580967,3.59991265,25.90034945322723
GeSe,2,bottom-up,Pbcm,mmm,orthorhombic,0.3512999999999997,False,3.76212508,10.88957039,22.971359
SbP,2,bottom-up,P1,1,triclinic,0.5420999999999999,False,3.927800252214041,4.396156075265145,22.4793507180624
W4O9,2,bottom-up,Pc,m,monoclinic,1.6791999999999998,True,9.10527850945929,9.112774772867251,24.342874564126994
FeSe2,2,bottom-up,Pcca,mmm,orthorhombic,0.0,False,5.947063322115962,5.949791898226274,22.94894133957304
TeAs,2,bottom-up,P2/c,2/m,monoclinic,0.0,False,5.995456146493009,18.58395800022369,23.120845
ZrS,2,bottom-up,P4/nmm,4/mmm,tetragonal,0.0,False,4.420169,4.420169,22.865869
RuS2,2,bottom-up,Pcca,mmm,orthorhombic,0.0,False,5.554649015485768,6.06335804722878,22.948950169875527
B2Te3,2,bottom-up,P1,1,triclinic,0.0,False,6.934706257542539,6.8755212802877175,38.829248871754
CrS,2,bottom-up,P4/nmm,4/mmm,tetragonal,0.0,False,3.44516409,3.44516409,23.354627
SrCl2,2,bottom-up,P-1,-1,triclinic,5.4516,False,8.573817860609239,8.635616711728295,23.51970451115343
V2O5,2,bottom-up,Pm,m,monoclinic,1.5097000000000005,False,2.886122,5.832925547532816,23.89133237191819
WS,2,bottom-up,P4/nmm,4/mmm,tetragonal,0.0,False,3.76444002,3.76444002,23.354627
InBi,2,bottom-up,P4/mbm,4/mmm,tetragonal,0.0,False,10.01912086,10.01912086,20.0
Cr3O8,2,bottom-up,Cm,m,monoclinic,1.5221999999999998,False,5.56097271,6.20942110849211,22.42954279038115
AlSe,2,bottom-up,P3m1,3m,trigonal,0.48629999999999995,False,3.7934246,3.7934246165057317,21.250951
AsBr3,2,bottom-up,P2_1/c,2/m,monoclinic,2.8602000000000003,False,7.052799616249226,11.712406350022379,23.613086941830595
SbS,2,bottom-up,Pmc2_1,mm2,orthorhombic,0.0,False,5.764861,14.630057,23.134393
TlN,2,bottom-up,P4/mbm,4/mmm,tetragonal,0.0,False,7.28900303,7.28900303,20.0
Rb2Cl,2,bottom-up,P-3m1,-3m,trigonal,0.0,False,4.607586,4.6075850443654325,23.407847
CrPb3,2,bottom-up,P6/mmm,6/mmm,hexagonal,0.0,False,6.265672,6.26567102677726,20.0
MgI2,2,bottom-up,Pmma,mmm,orthorhombic,2.6502,False,4.17316131,7.06072809,23.548695
TaCl4,2,bottom-up,P1,1,triclinic,1.1139000000000001,False,6.726070582644001,6.829139305566185,23.507043194721494
InSb,2,bottom-up,P4/mbm,4/mmm,tetragonal,0.0,False,9.443488,9.443488,20.0
ZrSe2,2,bottom-up,P4/mmm,4/mmm,tetragonal,0.0,False,3.35137939,3.35137939,22.61712
Mn2I7,2,bottom-up,P2/c,2/m,monoclinic,0.0,False,8.182513687830872,13.37126289192318,23.69014997663772
PF3,2,bottom-up,P2_1/c,2/m,monoclinic,5.67,True,8.159825802696684,9.446866772224041,24.2608050440847
AsF3,2,bottom-up,P2_1/c,2/m,monoclinic,5.2412,True,6.854826313500107,10.457230667470897,23.667604801270006
Sn3I8,2,bottom-up,P1,1,triclinic,0.345,False,7.339527712720397,8.215770787262096,33.7970464679931
B2S3,2,bottom-up,P1,1,triclinic,1.1287,False,6.115768861316976,6.096458444532483,38.69017404275516
B2Se3,2,bottom-up,P1,1,triclinic,0.5407,False,6.5176887496809535,6.54100587541347,38.6737604006434
NbCl4,2,bottom-up,P1,1,triclinic,0.0,False,6.173899370332902,6.349709732237765,22.703757408012468
As6Au,2,bottom-up,Pmn2_1,mm2,orthorhombic,0.0,False,3.54299,7.955925,29.060994
SbI3,2,bottom-up,Pc,m,monoclinic,1.8178,False,6.892823445994532,8.559217138320067,23.100012852538626
CrSn3,2,bottom-up,P6/mmm,6/mmm,hexagonal,0.0,False,5.95717617,5.957175793146855,20.0
AgP6,2,bottom-up,Pmn2_1,mm2,orthorhombic,0.0,False,2.892332,8.110233,29.060994
CdTe,2,bottom-up,P3m1,3m,trigonal,0.0,False,4.5987589,4.5987587066340385,56.585656
SbS,2,bottom-up,Pc,m,monoclinic,0.0,False,5.773593033565407,17.45195544793467,23.120845
TeN,2,bottom-up,Pc,m,monoclinic,0.10380000000000011,True,4.653850476198816,19.488341697893592,23.120845
SbF3,2,bottom-up,P2_1/c,2/m,monoclinic,3.9337999999999997,True,7.776898720913574,7.225081428115948,24.1398966657519
C2O5,2,bottom-up,Pnc2,mm2,orthorhombic,0.0,False,4.03335779,4.92579754,24.876722
In2S3,2,bottom-up,P1,1,triclinic,0.7588999999999999,False,6.297641269239666,8.476566440989954,38.28181142327304
TlBi,2,bottom-up,P4/mbm,4/mmm,tetragonal,0.0,False,10.358713,10.358713,20.0
PdBr2,2,bottom-up,P-1,-1,triclinic,0.09480000000000022,False,4.809425165607685,4.537480454325191,24.925501976327297
P6Au,2,bottom-up,Pmn2_1,mm2,orthorhombic,0.0,False,2.79071629,8.18927665,29.060994
PbBr4,2,bottom-up,P2/c,2/m,monoclinic,0.0,False,5.778294351257212,7.91600608459026,22.392178338637155
MoC3,2,bottom-up,P-6m2,-6m2,hexagonal,0.0,False,4.240036,4.24003609616298,20.0
Al2Te3,2,bottom-up,P1,1,triclinic,0.0,False,7.841121425965357,7.7906762422389235,38.50925053750826
NiBr2,2,bottom-up,P-1,-1,triclinic,0.0,False,4.508339521645806,4.4667648490058385,25.019813620367202
VI5,2,bottom-up,Pmma,mmm,orthorhombic,0.0,False,3.540251,14.397757,23.595189
Ga2Se3,2,bottom-up,P1,1,triclinic,0.28770000000000007,True,6.412231531007595,8.13345484531008,39.03034900581464
Be2N,2,bottom-up,P4/mmm,4/mmm,tetragonal,0.0,False,3.188322,3.18636,22.957399
Os3S4,2,bottom-up,P2_1/m,2/m,monoclinic,0.0,False,3.61872184,5.817922143374249,28.1072580897433
Mo4O9,2,bottom-up,P1,1,triclinic,1.4788999999999994,False,8.926869502123381,8.842383052147172,24.342921156104186
MgF2,2,bottom-up,C2/m,2/m,monoclinic,6.3749,True,3.261311,5.5614375518153585,24.675268183853564
VSe2,2,bottom-up,Pmmm,mmm,orthorhombic,0.0,False,3.0435915396136846,3.581063,23.44697792563029
Ni3Te4,2,bottom-up,P2/m,2/m,monoclinic,0.0,False,3.431678,6.446393239925486,25.046379136489513
SN,2,bottom-up,Pc,m,monoclinic,0.0,False,3.6497853146964037,17.13706832939093,23.120845
CaBr2,2,bottom-up,C2,2,monoclinic,3.6102999999999996,False,3.998977,7.596120039477127,24.43960642451316
P2O3,2,bottom-up,Pmma,mmm,orthorhombic,0.0012000000000000899,False,2.76764037,13.4996173,24.60873
RbMg,2,bottom-up,Pmmn,mmm,orthorhombic,0.0,False,4.154324155457539,3.896649,25.79154593000685
Te4Ru3,2,bottom-up,P2_1/m,2/m,monoclinic,0.0,False,3.941295,6.29576221958625,28.10600260677444
TaI4,2,bottom-up,Pc,m,monoclinic,0.0,False,8.036762308712632,7.15362861749483,22.491148834747527
Ta2F5,2,bottom-up,P1,1,triclinic,0.3334999999999999,False,4.924357520765526,4.918604806363894,24.92386209802666
TlP,2,bottom-up,P4/mbm,4/mmm,tetragonal,0.0,False,8.654194,8.654194,20.0
Pb3F8,2,bottom-up,P1,1,triclinic,2.3752,False,5.547209201728876,9.839104366871714,32.24686106969916
AuN3,2,bottom-up,Pccm,mmm,orthorhombic,0.7498,True,5.50738742,6.00976001,21.248852
CaBr2,2,bottom-up,P-1,-1,triclinic,4.8938,False,8.372580258919138,8.416683271120249,23.513880476488627
Pd3Se4,2,bottom-up,P2/m,2/m,monoclinic,0.0,False,4.593972,4.661307322537745,25.162872205821376
In2S3,2,bottom-up,P1,1,triclinic,0.10999999999999999,True,7.132314228167943,7.494499688554799,38.448737545836174
AuF2,2,bottom-up,P-4m2,-42m,tetragonal,0.0,False,3.21927943,3.21927943,23.530221
NbCl5,2,bottom-up,Pmma,mmm,orthorhombic,0.0,False,4.46989346,10.99799599,23.595189
AsSe,2,bottom-up,P2/c,2/m,monoclinic,0.0,False,5.687109712168551,17.583391856402486,23.120845
ZnTe,2,bottom-up,P3m1,3m,trigonal,0.0,False,4.3850055,4.385005319230635,56.585656
AsBr3,2,bottom-up,P-6m2,-6m2,hexagonal,0.7732000000000001,True,4.82298913,4.822988331833805,24.623946
Sn3Ir,2,bottom-up,P-6m2,-6m2,hexagonal,0.0,False,4.37578012,4.375780452017023,24.981638
V2Br5,2,bottom-up,Cm,m,monoclinic,0.0,False,6.11383004802212,6.123353499262589,24.91300610658777
B2Se3,2,bottom-up,P1,1,triclinic,0.0,False,6.081348587448781,6.346684752175839,38.64416303652894
SiC,2,bottom-up,P-6m2,-6m2,hexagonal,2.49,False,3.1000321100076853,3.1000262565454646,20.76974700000304
HfN2,2,bottom-up,P-3m1,-3m,trigonal,0.0,False,3.3476731300005773,3.3476737315371277,21.950498000000124
HfTe2,2,bottom-up,P4/mmm,4/mmm,tetragonal,0.0,False,3.4930366,3.4930366,22.61712
PI3,2,bottom-up,P-6m2,-6m2,hexagonal,0.10090000000000021,True,4.930778,4.930777126681452,24.623946