Formula,No. of Elements,Discovery Process,Space Group,Point Group,Crystal System,Band Gap,Is Gap Direct?,a,b,c
GdI3,2,bottom-up,C2/m,2/m,monoclinic,0.6010999999999997,False,7.585849536176975,7.585849634818087,23.291241192686776
SiTe,2,bottom-up,Pmmn,mmm,orthorhombic,0.7440000000000002,True,3.80330225,6.12132033,21.788418
P2Pb,2,bottom-up,Pmc2_1,mm2,orthorhombic,0.4052,False,3.79934049,10.69270349,26.149775
NbTe3,2,bottom-up,P2_1/m,2/m,monoclinic,0.0,False,3.69559964,13.46613028976645,27.00744227395484
NbI3,2,bottom-up,P-31m,-3m,trigonal,0.004999999999999893,True,6.99867919,6.998678592515615,22.719179
Ga2O,2,bottom-up,P-3m1,-3m,trigonal,0.0,False,3.00467434,3.004674362053502,23.020983
AuF,2,bottom-up,P-6m2,-6m2,hexagonal,0.09980000000000011,False,3.91579963,3.915798830619502,20.19552
CrSe2,2,bottom-up,P2_1/m,2/m,monoclinic,0.0,False,3.15681706,5.722915008253769,24.144069901426104
CI4,2,bottom-up,P4/mmm,4/mmm,tetragonal,0.0,False,4.99879146,4.99879146,23.993582
OsBr2,2,bottom-up,P-3m1,-3m,trigonal,1.2710000000000001,True,3.8181076,3.8181078026651587,23.240079
Er6F7,2,bottom-up,P-1,-1,triclinic,0.0,False,3.46877862861806,6.811780351609915,29.206690671967284
CoC4,2,bottom-up,P-42m,-42m,tetragonal,0.0,False,3.63425941,3.63425941,22.924308
Ga2Fe,2,bottom-up,P4/mmm,4/mmm,tetragonal,0.0,False,2.83432333,2.83432333,24.031254
SbCl3,2,bottom-up,C2/m,2/m,monoclinic,2.8267999999999995,False,6.754720622661809,6.754719756355175,23.527205158347805
ReSe2,2,bottom-up,P-3m1,-3m,trigonal,0.0,False,3.20082134,3.2008215102473043,22.641327
Tl2S5,2,bottom-up,C2/m,2/m,monoclinic,1.1931999999999996,False,3.75591105,7.993542852744639,24.115020140891893
CeSe3,2,bottom-up,P4/nmm,4/mmm,tetragonal,0.0,False,4.04577058,4.04424807,29.125354
AlAs5,2,bottom-up,Pmc2_1,mm2,orthorhombic,0.5004,True,7.047872,12.541145,26.806861
SnF2,2,bottom-up,P-3m1,-3m,trigonal,2.4311000000000003,False,3.87449,3.874491568061544,23.73272
AsCl4,2,bottom-up,Pc,m,monoclinic,0.0,False,5.9031112592835315,7.335905128843271,22.462637264230885
VTe2,2,bottom-up,P-1,-1,triclinic,0.0,False,13.18510160873384,13.20762969790051,23.73885221227236
FeCl4,2,bottom-up,P2_1/c,2/m,monoclinic,0.3959999999999999,True,6.157364611468859,6.28020877263725,23.37036375183139
Ga2Ru,2,bottom-up,P4/mmm,4/mmm,tetragonal,0.0,False,3.07022249,3.07022249,22.696945
ThCl4,2,bottom-up,P2_1/c,2/m,monoclinic,3.1448,True,7.350786,12.554224722261626,24.898518538835276
HfBr2,2,bottom-up,P2_1/m,2/m,monoclinic,0.8580000000000003,False,3.41673101,6.3694902472422745,24.412202278661276
As2S3,2,bottom-up,P-3m1,-3m,trigonal,0.9493000000000003,False,3.6479699,3.647970258845445,27.395711
AuBr,2,bottom-up,P-3m1,-3m,trigonal,0.07800000000000029,True,3.75948237,3.7594822892359465,23.814717
SiSe,2,bottom-up,Aem2,mm2,orthorhombic,1.0096999999999998,False,4.016923801820917,4.016924032312549,22.84014489263947
SnCl2,2,bottom-up,P-3m1,-3m,trigonal,2.437,False,4.22499164,4.2249927562921785,23.73272
B2S5,2,bottom-up,P-1,-1,triclinic,0.6774,False,3.0849923812667406,6.5658724562169475,24.10390001898308
BiC,2,bottom-up,C2/m,2/m,monoclinic,0.1298999999999999,False,3.60677184,10.126033607740547,24.72945143392483
Bi2Te3,2,bottom-up,P2_1/m,2/m,monoclinic,1.0079,False,4.41548725,10.750155432821273,24.81694822967473
Sr2As,2,bottom-up,P-3m1,-3m,trigonal,0.0,False,4.53169613,4.531696374284224,23.013137
AsO2,2,bottom-up,P2_1/m,2/m,monoclinic,2.6470000000000002,False,5.40446842622874,6.209790328567711,22.642017435217802
HfBr,2,bottom-up,C2/m,2/m,monoclinic,0.0257,False,3.4632717210729975,3.472828984163062,25.901874854711227
VS3,2,bottom-up,P2_1/m,2/m,monoclinic,0.0,False,3.19025411,11.402020862066415,27.01115857063221
ReF2,2,bottom-up,P-3m1,-3m,trigonal,0.0,False,2.72717323,2.7271730127924245,22.766075
Tl2S5,2,bottom-up,P1,1,triclinic,0.7799999999999998,True,4.090227944705388,7.751601930495556,24.073786247365337
WO3,2,bottom-up,Aem2,mm2,orthorhombic,1.3594,True,5.31354259,5.317329985711339,22.23209603591053
AuCl,2,bottom-up,P3m1,3m,trigonal,0.7903000000000002,False,4.27906288,4.279062833215304,20.19552
TiCl,2,bottom-up,P-3m1,-3m,trigonal,0.0,False,3.214325,3.214325158184529,26.166721
Sc2I3,2,bottom-up,C2/m,2/m,monoclinic,0.5305,False,3.87079842,11.257779806743516,26.110923695230795
VS3,2,bottom-up,P2_1/m,2/m,monoclinic,0.0,False,3.21615512,14.536435948322014,28.438172697641033
InAs5,2,bottom-up,Pmc2_1,mm2,orthorhombic,0.9208000000000001,True,7.06858,12.901353,26.806861
AlAs3,2,bottom-up,P-3m1,-3m,trigonal,0.6116999999999999,True,7.68332176,7.683322091940504,21.198253
UCl4,2,bottom-up,C2/m,2/m,monoclinic,0.19260000000000055,False,6.692399412736782,6.692399870575153,25.190630551446617
MgO2,2,bottom-up,P4/mmm,4/mmm,tetragonal,2.3385,False,2.85289997,2.85289997,21.519401
Ta6O13,2,bottom-up,Cmmm,mmm,orthorhombic,0.0,False,3.86632689,12.653197310164904,28.18081600010706
Ba5Rh,2,bottom-up,Pmc2_1,mm2,orthorhombic,0.0,False,7.6371791,8.21741068,25.78836
Ca2Bi,2,bottom-up,P-3m1,-3m,trigonal,0.0,False,4.672696,4.672696484833998,23.013137
PbSe2,2,bottom-up,P-3m1,-3m,trigonal,0.09629999999999983,False,3.9925922,3.992592112681521,24.665211
Se5N2,2,bottom-up,P2_1/c,2/m,monoclinic,0.010400000000000187,True,6.349458,7.585269201477295,32.24471684754729
PdCl2,2,bottom-up,P2_1/c,2/m,monoclinic,1.3216,True,6.254174958666384,7.55039355,26.03609511759277
USe5,2,bottom-up,P2_1,2,monoclinic,0.001100000000000101,False,3.9824740009101522,9.32519793,29.45247998079179
WBr2,2,bottom-up,C2/m,2/m,monoclinic,0.4731000000000001,False,3.813636,4.314208829816772,23.323819570088023
B2Os,2,bottom-up,P4/mmm,4/mmm,tetragonal,0.0,False,2.8035461,2.8035461,19.488383
NbTe2,2,bottom-up,P-1,-1,triclinic,0.0,False,13.1552892614942,13.176936401208572,23.72676927548985
HfCu,2,bottom-up,P4/nmm,4/mmm,tetragonal,0.0,False,3.05723686,3.05723686,24.42588
SmI3,2,bottom-up,Pmmn,mmm,orthorhombic,1.8831000000000002,False,4.24666147,9.98409152,24.348355
Y7F10,2,bottom-up,P-1,-1,triclinic,0.0,False,3.612884005832257,14.088615150893574,26.90865894240295
WCl2,2,bottom-up,C2/m,2/m,monoclinic,0.6214,False,3.671064,4.26959013248122,23.102578558714804
Bi2Se3,2,bottom-up,P2_1/m,2/m,monoclinic,1.1149,False,4.165556,10.379063987955801,26.235574606875396
CaF2,2,bottom-up,P-4m2,-42m,tetragonal,6.4838000000000005,False,3.892605,3.892605,22.656191
RhF3,2,bottom-up,P-31m,-3m,trigonal,1.6945000000000006,False,5.280306484792241,5.280306901175441,22.641507939084008
TeC,2,bottom-up,Aem2,mm2,orthorhombic,0.6514,False,3.523062825798499,3.5230627076638044,22.84120799080294
Si3Ir,2,bottom-up,P4/mbm,4/mmm,tetragonal,0.0,False,5.61786241,5.61786241,25.635832
Er6Br7,2,bottom-up,P-1,-1,triclinic,0.0,False,3.729856135913398,10.38931498814337,29.197183886907457
MoCl2,2,bottom-up,C2/m,2/m,monoclinic,0.7848999999999999,False,3.645117,4.166934936047958,23.057047
HfI2,2,bottom-up,P-3m1,-3m,trigonal,0.0,False,3.70382244,3.70382289425482,23.19661
CaI2,2,bottom-up,P-4m2,-42m,tetragonal,4.0132,False,4.744069,4.744069,22.656191
Pr2F5,2,bottom-up,P2_1/m,2/m,monoclinic,0.8202,False,3.69763975,12.71670380365136,26.349384287841303
MoI3,2,bottom-up,P-31m,-3m,trigonal,0.9125999999999999,True,7.064705,7.064705615815071,22.87158
SnH,2,bottom-up,P-3m1,-3m,trigonal,0.5032000000000001,True,4.692348,4.692347871181121,23.722044
SbC,2,bottom-up,C2/m,2/m,monoclinic,0.6056999999999999,True,3.42391682,9.723703534932106,24.73190579897628
ZrCu,2,bottom-up,P4/nmm,4/mmm,tetragonal,0.0,False,3.0660632,3.0660632,24.42588
NiS,2,bottom-up,P3m1,3m,trigonal,0.0,False,3.38720375,3.387202959832249,21.231711
HgCl2,2,bottom-up,P-3m1,-3m,trigonal,2.5222,True,3.92309264,3.9230922621402344,22.956052
GeS2,2,bottom-up,P-3m1,-3m,trigonal,0.7156999999999996,False,3.453148,3.4531480943730175,23.192892
AsI4,2,bottom-up,P-1,-1,triclinic,0.0,False,8.096080460941666,6.453516534465839,23.91467294312254
Y5F8,2,bottom-up,P2/m,2/m,monoclinic,0.0,False,3.54465927,12.145553570383381,25.194389368448938
InF,2,bottom-up,P4/nmm,4/mmm,tetragonal,2.1553,False,3.59593394,3.60071926,23.633843
Mo3Se4,2,bottom-up,P-3m1,-3m,trigonal,0.0,False,3.286972,3.2847345411781754,29.268704537856692
Tl4S3,2,bottom-up,Pmn2_1,mm2,orthorhombic,0.6087000000000002,False,4.02206313,12.38152823,30.194773
UI4,2,bottom-up,C2/m,2/m,monoclinic,0.09410000000000007,False,7.64123703661359,7.641237175287059,25.189395953321768
NiP2,2,bottom-up,P2_1/m,2/m,monoclinic,0.0,False,3.3011216210814935,4.404564819789172,24.533489231322687
TlN,2,bottom-up,P4/nmm,4/mmm,tetragonal,0.0,False,4.631768,4.631768,23.942319
CoF3,2,bottom-up,C2/m,2/m,monoclinic,1.8284000000000002,False,5.263641550042864,5.263641631711197,22.642235460413357
Sr2P,2,bottom-up,P-3m1,-3m,trigonal,0.0,False,4.42546687,4.42546745262897,23.013137
NbCl2,2,bottom-up,P-3m1,-3m,trigonal,0.0,False,3.2073795,3.207378818803987,22.903114
Re3Cl8,2,bottom-up,P1,1,triclinic,0.34670000000000023,False,6.412677643592081,7.3396874545353885,22.178339508862614
CuCl2,2,bottom-up,P2_1/c,2/m,monoclinic,0.11369999999999969,False,3.68074212,6.033721049436922,21.524234937263888
PdBr2,2,bottom-up,P-3m1,-3m,trigonal,0.10440000000000005,False,3.85254075,3.8525417213534228,23.007692
CoI3,2,bottom-up,C2/m,2/m,monoclinic,0.7771999999999997,False,6.662453625267975,6.662453276730564,22.62890783613996
AlCl3,2,bottom-up,Pmc2_1,mm2,orthorhombic,4.4627,True,6.61864839,6.10614132,22.61305
RuF3,2,bottom-up,P-31m,-3m,trigonal,0.0,False,5.03455176,5.034552029283251,22.566854
OsCl4,2,bottom-up,P2_1/c,2/m,monoclinic,0.12089999999999979,False,5.856562107034552,6.256439510054981,23.369452124001835
Y2Si,2,bottom-up,P-3m1,-3m,trigonal,0.0,False,3.978737,3.978736975489835,22.46647
AlSb,2,bottom-up,P4/nmm,4/mmm,tetragonal,0.0,False,4.22797099,4.22797099,23.942319
I3N,2,bottom-up,P2_1/c,2/m,monoclinic,0.6438999999999999,False,8.289032981926264,10.07307926,24.583805853086567
TlTe,2,bottom-up,P-6m2,-6m2,hexagonal,0.5956999999999999,False,4.47862383,4.4786244145793,28.110702
BeO2,2,bottom-up,P4/mmm,4/mmm,tetragonal,1.5217,False,2.51343179,2.51343179,21.519401
TlSe,2,bottom-up,P-3m1,-3m,trigonal,0.5773999999999999,False,4.201657,4.201656509817646,24.623155
GeP,2,bottom-up,P-1,-1,triclinic,1.7484999999999997,False,3.656965943986903,10.877529555696384,24.95550338216731
PtBr2,2,bottom-up,P-3m1,-3m,trigonal,0.16280000000000028,False,3.90651574,3.906515643763997,23.007692
GeSb2,2,bottom-up,Pmc2_1,mm2,orthorhombic,1.0369000000000002,False,4.14689627,11.59898612,25.607718
GaBr3,2,bottom-up,C2/m,2/m,monoclinic,2.5997999999999997,False,6.449267179559005,6.4492657920413725,22.723669291291944
InTe,2,bottom-up,P-6m2,-6m2,hexagonal,1.4538000000000002,False,4.35064409,4.350643261796943,27.689007
SnAs3,2,bottom-up,P-3m1,-3m,trigonal,0.0,False,7.76111125,7.761111675817063,21.405434
SrF2,2,bottom-up,P-4m2,-42m,tetragonal,6.017,False,4.23101527,4.23101527,22.656191
As9Br2,2,bottom-up,P2_1/m,2/m,monoclinic,0.0,False,3.74315655,11.351033519288155,34.95415380957752
DyI3,2,bottom-up,Pmmn,mmm,orthorhombic,1.8297999999999999,False,4.13231193,10.00309301,23.944354
SnP2,2,bottom-up,Pmc2_1,mm2,orthorhombic,0.8106,False,3.71268792,10.82674884,26.149775
NpCl3,2,bottom-up,P-6m2,-6m2,hexagonal,0.0017000000000000348,False,4.76528834,4.765289919912663,24.79164
PtF2,2,bottom-up,P-3m1,-3m,trigonal,0.5107999999999997,False,3.4985041000000003,3.4985031604198844,22.803068
Tl2Fe,2,bottom-up,P4/mmm,4/mmm,tetragonal,0.0,False,3.215903,3.215903,25.818897
RhF2,2,bottom-up,P-3m1,-3m,trigonal,0.0,False,3.39105,3.391050480208308,22.858091
AsI3,2,bottom-up,P2_1/c,2/m,monoclinic,1.8703999999999998,False,8.437378095843922,10.9490288,24.538270660445836
GeTe2,2,bottom-up,P-3m1,-3m,trigonal,0.0,False,3.87822016,3.87821949043018,25.052688
SeF,2,bottom-up,P-1,-1,triclinic,1.3365999999999998,False,3.4954737864373944,7.2893496175819275,25.874338954790545
P2S3,2,bottom-up,P2_1/m,2/m,monoclinic,0.5952999999999999,False,3.39647298,10.205043154557094,25.250717306660103
ClO2,2,bottom-up,P2_1/c,2/m,monoclinic,0.2655999999999996,False,6.69770592,8.094832813747745,24.52877917417808
BTe,2,bottom-up,P-3m1,-3m,trigonal,1.7859,False,3.59253768,3.5925382819458602,24.623155
AsC,2,bottom-up,C2/m,2/m,monoclinic,1.5568,True,3.12291805,8.975194408925814,24.72889395227306
Sr2Sb,2,bottom-up,P-3m1,-3m,trigonal,0.0,False,4.80222935,4.802229411476995,23.013137
UF3,2,bottom-up,Pmmn,mmm,orthorhombic,0.026999999999999913,False,3.59423633,7.31904006,24.951193
As2Se3,2,bottom-up,P-3m1,-3m,trigonal,0.6571,False,3.81055802,3.810558636684122,24.579349
PI3,2,bottom-up,C2/m,2/m,monoclinic,1.8954999999999997,False,6.9976262683263535,6.997626384989842,23.53394032076471
SeCl,2,bottom-up,P-1,-1,triclinic,1.3186,True,7.0769115262594235,8.656513160054786,25.151590982882148
In4O3,2,bottom-up,P2_1/m,2/m,monoclinic,0.21810000000000002,False,3.30778383,7.280185364911709,27.76303533032968
WF2,2,bottom-up,C2/m,2/m,monoclinic,1.3461000000000003,False,3.45730872,4.09942789813323,22.945105227140505
CBr3,2,bottom-up,P1,1,triclinic,1.1360000000000001,False,5.804137125810912,8.390645996341801,24.076166728058517
Ta3F8,2,bottom-up,P3m1,3m,trigonal,0.4018999999999999,False,5.92821952,5.928219638378204,24.052163
BeI2,2,bottom-up,P-4m2,-42m,tetragonal,3.0251,False,3.906387,3.906387,22.656191
Bi2S3,2,bottom-up,P2_1/m,2/m,monoclinic,1.3903,False,4.02922541,9.89297087589877,26.243074083794934
YI2,2,bottom-up,P-6m2,-6m2,hexagonal,0.1714,False,4.083314,4.083314798234395,23.825805
NbS3,2,bottom-up,P2_1/m,2/m,monoclinic,0.0,False,3.41489221,11.479795898387419,27.014424051924397
TaBr3,2,bottom-up,P-31m,-3m,trigonal,0.0,False,6.11822502,6.118225240129025,22.719179
NiAs2,2,bottom-up,P4/mmm,4/mmm,tetragonal,0.0,False,2.799303,2.799303,23.530469
CdF2,2,bottom-up,P-3m1,-3m,trigonal,3.9391,True,3.533596,3.533596084254679,22.956052
SiAs3,2,bottom-up,P-3m1,-3m,trigonal,0.0,False,7.3443273,7.344328011736688,21.405434
ScBr2,2,bottom-up,P4/mmm,4/mmm,tetragonal,0.0,False,3.380242,3.380242,23.801584
Na2O,2,bottom-up,P-3m1,-3m,trigonal,0.8680000000000001,True,6.3519066763072365,6.351878592020967,22.643564182900455
RhS2,2,bottom-up,P-3m1,-3m,trigonal,0.0,False,3.47768853,3.477690123234729,22.058463
TaBr5,2,bottom-up,P-1,-1,triclinic,1.9348999999999994,True,6.793854891494961,7.017605079701621,30.567358565609982
BaO2,2,bottom-up,P4/mmm,4/mmm,tetragonal,2.6928,False,3.74307382,3.74307382,21.519401
PbS2,2,bottom-up,P-3m1,-3m,trigonal,0.6893000000000002,False,3.84495998,3.8449605944109324,23.192892
ZrS5,2,bottom-up,Pmmn,mmm,orthorhombic,0.16669999999999963,True,3.53347674,11.79354985,23.70937
SnN,2,bottom-up,C2/m,2/m,monoclinic,0.238,False,3.4325766298350917,10.767391561381167,25.231042723968898
SiS,2,bottom-up,P3m1,3m,trigonal,2.17,False,3.3265173,3.32651807255668,21.478674
TaS,2,bottom-up,P4/nmm,4/mmm,tetragonal,0.0,False,3.80978829,3.80978829,23.448734
YCl3,2,bottom-up,Pmmn,mmm,orthorhombic,3.7199,True,3.78106344,8.49808135,24.85506
BBr3,2,bottom-up,Pmc2_1,mm2,orthorhombic,3.2321,True,6.34290451,7.29318226,22.61305
Sb2Se3,2,bottom-up,P-3m1,-3m,trigonal,0.49839999999999995,False,4.06217665,4.06217574375059,26.918181
GeTe,2,bottom-up,Pmmn,mmm,orthorhombic,1.1057,True,3.920371,6.189556,22.225044
Ta2Se3,2,bottom-up,P2_1/m,2/m,monoclinic,0.0,False,3.366968355340033,9.885918040915845,24.16581542236522
SmCl3,2,bottom-up,Pmmn,mmm,orthorhombic,3.7302,True,3.89785664,8.5840624,24.348355
P2C,2,bottom-up,Pmc2_1,mm2,orthorhombic,1.7869000000000002,False,3.04659641,8.68005649,26.149775
GeCl4,2,bottom-up,P4/mmm,4/mmm,tetragonal,0.6704999999999997,False,4.90162082,4.90162082,23.993582
GaAs5,2,bottom-up,Pmc2_1,mm2,orthorhombic,0.8872000000000002,True,7.04833474,12.67082612,26.806861
TeC,2,bottom-up,P3m1,3m,trigonal,1.2524000000000002,False,3.357698,3.3576904401417056,19.077377000035877
OsBr3,2,bottom-up,P-31m,-3m,trigonal,0.04519999999999991,False,6.370976415124854,6.371041183252071,22.681607003661668
ScCl2,2,bottom-up,P-6m2,-6m2,hexagonal,0.11440000000000006,False,3.493018,3.493018585540306,23.825805
V2Te,2,bottom-up,P4/nmm,4/mmm,tetragonal,0.0,False,3.232789,3.232789,27.221538
AsO2,2,bottom-up,Pmc2_1,mm2,orthorhombic,2.0347999999999997,False,2.952403,9.258844021365572,30.972495009202113
CuSe2,2,bottom-up,P-3m1,-3m,trigonal,0.0,False,3.43954732,3.4705156729769677,23.009323894895807
InCl3,2,bottom-up,Pmma,mmm,orthorhombic,2.4100000000000006,True,5.10613459,7.38973421,22.61305
AlTe,2,bottom-up,P-3m1,-3m,trigonal,2.0391,False,4.127218,4.127218316137032,24.623155
LuSn2,2,bottom-up,P4/mmm,4/mmm,tetragonal,0.0,False,3.69201043,3.69201043,23.77951
NdCl2,2,bottom-up,P4/mmm,4/mmm,tetragonal,0.0,False,3.498422,3.498422,23.775734
AsBr4,2,bottom-up,P-1,-1,triclinic,0.09480000000000022,False,6.433330009084449,7.627481942795516,22.809348225629158
Te3P2,2,bottom-up,Pc,m,monoclinic,1.2347000000000001,False,4.601694306391509,12.547123467443061,23.079365
Ba2Ir,2,bottom-up,P4/mmm,4/mmm,tetragonal,0.0,False,3.83847227,3.83847227,24.733725
TaTe3,2,bottom-up,P2_1/m,2/m,monoclinic,0.0,False,6.35036256803707,7.361815239019534,26.383848443419986
CdBr2,2,bottom-up,P-4m2,-42m,tetragonal,3.0964000000000005,True,8.21845358,8.21845358,26.75385
AsBr3,2,bottom-up,P2_1/c,2/m,monoclinic,2.9099999999999997,False,8.109646595424598,10.07657116,24.867011639116345
BCl,2,bottom-up,Aem2,mm2,orthorhombic,2.8064,False,7.42913362,7.49473442,23.140016
BaI2,2,bottom-up,P-3m1,-3m,trigonal,3.9853000000000005,False,5.101659,5.101658494136687,22.742717
GeSe,2,bottom-up,Pmmn,mmm,orthorhombic,1.5544000000000002,False,3.63108102,5.87734901,21.810792
SbBr4,2,bottom-up,Pc,m,monoclinic,0.0,False,6.4163262785422175,7.581244979482264,22.461778974347506
GaF3,2,bottom-up,C2/m,2/m,monoclinic,5.972300000000001,False,5.143586398752451,5.163691975269999,23.264857416918726
CoSe2,2,bottom-up,P-3m1,-3m,trigonal,0.0,False,3.367694,3.3676935183405567,22.7332
Br2O5,2,bottom-up,P2_1,2,monoclinic,2.2224999999999993,False,5.138573,11.225385959816839,23.196675441980815
WCl3,2,bottom-up,P-31m,-3m,trigonal,0.7679,False,6.29651285,6.296512048998346,22.87158
GaS,2,bottom-up,P-1,-1,triclinic,2.0461,False,3.6351545850614113,5.213438765059104,23.431746374203243
Y2Br5,2,bottom-up,P2_1/m,2/m,monoclinic,0.3414999999999999,False,3.929868,15.288796923300701,26.519445786308772
Nd2S5,2,bottom-up,P4/nmm,4/mmm,tetragonal,0.0,False,3.86812521,3.8680957,38.6804
AlI,2,bottom-up,P4/nmm,4/mmm,tetragonal,1.6491000000000002,False,6.66229252,6.66979514,23.140016
NiCl2,2,bottom-up,P2_1/c,2/m,monoclinic,0.7441000000000004,False,5.876671657436997,7.12627691,26.012935793525255
TiBr,2,bottom-up,C2/m,2/m,monoclinic,0.0,False,3.3389637278229163,3.3400836464216153,25.901725237237528
BeI2,2,bottom-up,P-3m1,-3m,trigonal,2.3770000000000002,False,3.83612929,3.8361294333663407,22.742717
TiF3,2,bottom-up,P-31m,-3m,trigonal,0.0,False,5.17624428,5.17624453902411,23.034941
As2Pd,2,bottom-up,P-3m1,-3m,trigonal,0.0,False,7.11414295,7.114142971401458,22.860006
SiBr3,2,bottom-up,P1,1,triclinic,2.6247,False,6.3200488755959325,9.805964617157578,24.42801471377851
CuS,2,bottom-up,P-1,-1,triclinic,0.0,False,3.4164851376895893,5.80399819122505,25.29404444689478
NbTe3,2,bottom-up,P2_1/m,2/m,monoclinic,0.0,False,3.72598214,17.276624672759933,27.879656721796977
GeN,2,bottom-up,C2/m,2/m,monoclinic,1.3409999999999997,False,3.098645,9.533246573685902,24.729919197951332
NpCl3,2,bottom-up,Pmmn,mmm,orthorhombic,0.0,False,3.91529529,8.60835378,24.494445
Sb2Pt,2,bottom-up,P4/mmm,4/mmm,tetragonal,0.0,False,3.22815286,3.22815286,23.530469
ReCl3,2,bottom-up,C2/m,2/m,monoclinic,0.13280000000000003,False,5.694726525741515,5.694726395203212,22.024252885636145
Ge4Rh,2,bottom-up,P4/nbm,4/mmm,tetragonal,0.0,False,6.12711074,6.12711074,22.924308
TcTe2,2,bottom-up,P-1,-1,triclinic,0.749,False,7.083736645012574,7.231369041048936,23.532923511804604
MoS2,2,bottom-up,P2_1/m,2/m,monoclinic,0.04360000000000008,True,3.19363846,5.739574768528887,24.194088781333505
Nb2Te,2,bottom-up,P4/nmm,4/mmm,tetragonal,0.0,False,3.50632322,3.50632322,27.221538
GeO,2,bottom-up,P4/nmm,4/mmm,tetragonal,2.194,False,3.601376,3.601376,22.379159
V2S,2,bottom-up,P4/nmm,4/mmm,tetragonal,0.0,False,3.092333,3.092333,27.221538