Formula,No. of Elements,Discovery Process,Space Group,Point Group,Crystal System,Band Gap,Is Gap Direct?,a,b,c
PbWO4,3,top-down,P2/c,2/m,monoclinic,3.5734999999999997,False,5.08337081085389,5.216602909865542,24.40455536574267
CdSnO3,3,top-down,P-31m,-3m,trigonal,1.8489999999999998,False,5.605154980000002,5.605155351247487,22.11745168
TlMo2Cl7O2,4,top-down,P-1,-1,triclinic,2.1649000000000003,False,9.591958728895603,9.998750045056536,25.14512405365951
Cd2SiO4,3,top-down,C222,222,orthorhombic,2.319,False,6.33785909,6.367382756814043,22.42256199
Li(CoO2)3,3,top-down,P1,1,triclinic,0.5116999999999998,False,4.94306083511374,5.000601748838703,22.4947349473604
LiCuPO4,4,top-down,Pmma,mmm,orthorhombic,0.0,False,5.88073989,8.11941331,22.49984
SrLaCl5,3,top-down,P2_1/m,2/m,monoclinic,3.8742,False,4.1874909,15.106207399145692,23.315231545803634
AgHgAsS3,4,top-down,Pc,m,monoclinic,1.5008999999999997,False,6.819805222081875,8.145837865123974,26.424381
CdBiSe2Br,4,top-down,Pmc2_1,mm2,orthorhombic,0.7898000000000001,False,3.97390708,11.9959411,25.913257
MgCr2F12,3,top-down,P-1,-1,triclinic,1.3039000000000005,False,5.007034681683711,5.248516254863418,25.887011596106582
VF4,2,top-down,P2_1/c,2/m,monoclinic,1.7261999999999995,True,4.95206683,7.42719281,25.662817
Ca(BiO2)2,3,top-down,Pmc2_1,mm2,orthorhombic,1.0589999999999997,False,3.3467291,10.13960351,25.246384
Re2S2O13,3,top-down,Pba2,mm2,orthorhombic,2.3876999999999997,False,8.37929748,9.70048333,24.503758
Mg(SbO2)4,3,top-down,Pm,m,monoclinic,2.1256000000000004,False,3.2188496901285615,9.488931012154696,26.123329
Mn3OF6,3,top-down,P-1,-1,triclinic,0.6661999999999999,False,8.504232965188283,8.502105567602483,22.167867
Sr2CoCu2O7,4,top-down,Pmc2_1,mm2,orthorhombic,0.0,False,5.127810846523563,5.146013901656612,29.438741
Nb9IrSe20,3,top-down,P-1,-1,triclinic,0.0,False,6.953930468371823,15.23905162262375,23.467587
MgWF4,3,top-down,Pccm,mmm,orthorhombic,2.3593,False,4.79703831892382,11.029010726543065,21.623065
Bi2B2O7,3,top-down,P-1,-1,triclinic,0.0,False,7.820617065855049,7.77502825505773,22.99443011889523
Mg(BiO2)4,3,top-down,P1,1,triclinic,0.7046999999999999,False,3.368316928863264,10.095441614087765,25.997002
CuB2(CN)8,4,top-down,C2/m,2/m,monoclinic,0.8841999999999999,False,7.24908177,7.578700954398102,29.73709
Dy2Te5O13,3,top-down,P-1,-1,triclinic,3.0591,False,7.011241766371927,8.599755883364589,31.016436
Li2Cu3F8,3,top-down,P-1,-1,triclinic,0.32399999999999984,False,5.997965618964193,6.1739219386932875,24.173595
Sr2VCu2O7,4,top-down,Pm,m,monoclinic,0.0,False,5.230875478747984,5.342423951342145,29.467049
ReHgO4,3,top-down,P2_1/c,2/m,monoclinic,3.0104,False,5.21673309,15.266881042218655,26.030599429082518
Sr2GaSb2O7,4,top-down,P2_1,2,monoclinic,0.20540000000000003,False,5.857928516323999,6.0678098022100455,27.648805
ZnS,2,top-down,P3m1,3m,trigonal,0.0,False,3.81098495,3.810985145417114,76.550342
MgV4O9,3,top-down,P4/n,4/m,tetragonal,2.0791999999999997,True,8.40203339,8.40203339,26.632185
BiP2O7,3,top-down,P-1,-1,triclinic,0.08740000000000059,False,6.850840191429517,6.858676813259132,24.871779
ZnCo4O9,3,top-down,P2/c,2/m,monoclinic,0.03770000000000007,True,8.424877097841506,8.231199211213877,24.522351821821605
AlBiBr6,3,top-down,P-1,-1,triclinic,2.6119,True,7.771974385528211,9.71709759141966,25.346255
NaTm(SO4)2,4,top-down,P2_1/m,2/m,monoclinic,5.199,True,4.786183549712987,6.71735318,29.95544806604764
CaPbI4,3,top-down,P2_1/m,2/m,monoclinic,3.0145,False,4.510495248934184,15.716812739511449,23.723655
V4ZnO9,3,top-down,P4/n,4/m,tetragonal,1.8299000000000003,True,8.4150997,8.4150997,26.514292
As2Pb2O5,3,top-down,P2_1/c,2/m,monoclinic,3.0113,False,5.78593712,13.64865262,26.346806
Li2Cu2F7,3,top-down,P-1,-1,triclinic,0.15000000000000036,False,5.273706250257774,6.2861106233230295,26.605389
ZnH6(SeO4)2,4,top-down,P2_1/c,2/m,monoclinic,3.9154,False,7.00645788,8.420847843337452,26.390377817051153
V2P4S13,3,top-down,P-1,-1,triclinic,0.1293000000000002,False,9.77193567618656,16.11764839063353,23.12294173385388
MgTi(GeO3)2,4,top-down,P2_1/c,2/m,monoclinic,2.1065,False,5.34774153,8.41812185,29.918774
NdPb6F15,3,top-down,Cm,m,monoclinic,4.0907,False,4.12814592199569,4.128145794439113,62.422325
Zn(SnO2)2,3,top-down,P2/c,2/m,monoclinic,2.95,True,6.208357632561873,11.085830442668819,25.658483
MgV2O5,3,top-down,Pmmn,mmm,orthorhombic,2.8817,False,3.86427676,11.23818663,24.314665
Hg(TeO3)2,3,top-down,P-1,-1,triclinic,2.1384000000000003,False,6.334263427984418,7.920299386397446,25.967629
LiVF4,3,top-down,P-1,-1,triclinic,2.3884,False,4.071007883442975,7.4398277737136755,19.359286760675957
La(HO)3,3,top-down,P2_1/c,2/m,monoclinic,4.3744,False,6.69395312,12.04317688,24.499299
ReSeCl,3,top-down,P2_12_12,222,orthorhombic,1.6093000000000002,False,10.96123539,11.74852693,28.563422
BaTlV2O6,4,top-down,P1,1,triclinic,0.0,False,3.3380352851053594,3.4658036097631753,63.364739
Bi6W4O21,3,top-down,P1,1,triclinic,0.0,False,5.053514953599641,4.981627021731529,38.25125538884298
V3(OF)4,3,top-down,Pm,m,monoclinic,0.6692,False,2.98704148,4.68451887,27.466142
SnCCl3,3,top-down,P3m1,3m,trigonal,0.030700000000000394,False,6.25692534,6.256923702023063,20.85491325
In2S3,2,top-down,P321,32,trigonal,1.9061,True,6.78078282,6.780783823732146,22.24908667
CuHgO2,3,top-down,P2/m,2/m,monoclinic,0.0,False,2.99085068,6.3517933,20.882708
BaClO3,3,top-down,P4/nmm,4/mmm,tetragonal,0.0,False,3.83947924,3.83947924,28.33072323
CeSi5,2,top-down,Pmmm,mmm,orthorhombic,0.0,False,3.32528783,6.30068623,23.39234145
Ta3SeI7,3,top-down,P3m1,3m,trigonal,0.6888000000000001,False,7.60396872,7.603968460385189,23.81470245
Ba(NiO2)4,3,top-down,P-31m,-3m,trigonal,0.0,False,5.36438241,5.364382953292807,24.514393
CrPO5,3,top-down,P4/n,4/m,tetragonal,2.0606,True,5.82083335,5.82083335,26.05600777
Co(ClO4)2,3,top-down,P-3,-3,trigonal,3.0358,False,4.786430840000001,4.786430449870486,26.24629829
LaMgI5,3,top-down,Pmma,mmm,orthorhombic,1.9998,False,4.31538405,17.34227871,25.09684843
Mg2SiO4,3,top-down,P4/mmm,4/mmm,tetragonal,0.0,False,3.50307714,3.50307714,27.55909168
WF5,2,top-down,Pmma,mmm,orthorhombic,2.3857,True,3.59865296,8.48789514,23.40306221
ZnFe2O5,3,top-down,Pmmn,mmm,orthorhombic,0.0,False,3.58047927,11.72551452,23.72817449
PPdS,3,top-down,Pc,m,monoclinic,0.0,False,5.61651201,5.710710841196372,21.128580402252346
Li2V(CO3)2,4,top-down,P-3,-3,trigonal,2.496,False,4.88608203,4.886082315921989,24.224921
ErAg(PSe3)2,4,top-down,P312,32,trigonal,1.7678000000000003,False,6.61969238,6.619692581226962,23.67577119
Ba(SnO2)4,3,top-down,P-31m,-3m,trigonal,0.0,False,5.95670518,5.956705569660154,24.40968695
TiPbO3,3,top-down,P4mm,4mm,tetragonal,2.4812,False,3.8948338,3.8948338,23.818957
H5W,2,top-down,Pmma,mmm,orthorhombic,0.0,False,2.87233108,6.12757621,22.06266937
Mn(NbS2)2,3,top-down,P-3m1,-3m,trigonal,0.0,False,3.3041333,3.304132144752212,30.63701181
FeSe,2,top-down,P4/nmm,4/mmm,tetragonal,0.0,False,3.67957623,3.67957623,22.7683183
C3N,2,top-down,P2_1,2,monoclinic,0.0,False,3.7380454133276726,6.52067995,20.766713995182123
FeAgS2,3,top-down,P3m1,3m,trigonal,0.0,False,3.13823226,3.138233750811576,24.860633
Na2SnO6,3,top-down,P-3,-3,trigonal,0.5052000000000003,False,6.44289253,6.442893041756662,21.6938728
SrP2(HO)4,4,top-down,P2/c,2/m,monoclinic,5.165,False,5.942213729429354,5.94282538,26.206390753988373
SiAs2,2,top-down,Pmc2_1,mm2,orthorhombic,1.3449000000000002,False,3.6911435,10.31615446,26.18862002
VSO5,3,top-down,P4/n,4/m,tetragonal,2.7030000000000003,False,6.30820742,6.30820742,22.23996894
MnSbO4,3,top-down,P2/m,2/m,monoclinic,1.3221000000000003,False,3.02872766,5.64982629,22.302732
Re(AgCl3)2,3,top-down,P-3,-3,trigonal,0.9074999999999998,True,6.574175510000001,6.574174781027547,22.768399
Na2UI6,3,top-down,P-3,-3,trigonal,0.27149999999999963,False,7.74049369,7.740493031207084,23.561484
MoO3,2,top-down,P-6m2,-6m2,hexagonal,0.0,False,3.52514366,3.5251433826772227,23.55564256
Ta3TeI7,3,top-down,P3m1,3m,trigonal,0.6596000000000002,False,7.64635971,7.646358843002747,24.02543766
Nb3I8,2,top-down,P3m1,3m,trigonal,0.29310000000000014,False,7.66096085,7.660960862938518,24.17925784
V(CO3)2,3,top-down,P-3,-3,trigonal,1.4628000000000005,False,4.827681940000001,4.827681825362978,22.222603
Si3N4,2,top-down,P-6m2,-6m2,hexagonal,2.0140000000000002,True,5.83485896,5.83485905932251,19.974809
UTe5,2,top-down,P2_1/m,2/m,monoclinic,0.0020999999999999908,True,4.223319663712731,10.27664295,29.403463278603365
Li2WS4,3,top-down,P-42m,-42m,tetragonal,2.2883,False,6.00903083,6.00903083,22.48105567
I,1,top-down,Pbam,mmm,orthorhombic,0.9824000000000006,False,4.50843995,9.88024994,19.94809781
GeP3,2,top-down,P-3m1,-3m,trigonal,0.0,False,6.99672333,6.996723614712039,21.17338057
Al2FeS4,3,top-down,P-3m1,-3m,trigonal,0.0,False,3.62254146,3.6225425754864164,28.67603055
PuF3,2,top-down,P-6m2,-6m2,hexagonal,0.0,False,4.12605245,4.12605246083823,24.728211
TiTl2F6,3,top-down,P-3m1,-3m,trigonal,3.8512,False,5.88740749,5.887406376199388,21.9559206
AsI3,2,top-down,P-3,-3,trigonal,2.17,False,7.18108694,7.181086160814177,23.36313015
Bi2CO5,3,top-down,Pmm2,mm2,orthorhombic,0.0,False,3.654165400039544,4.70371822,23.817628
NiS2,2,top-down,P-3m1,-3m,trigonal,0.5621999999999998,False,3.331411,3.3314111404937914,22.37430708
Ba(SbO2)4,3,top-down,P-31m,-3m,trigonal,0.0,False,6.27545542,6.275456074683396,23.95236636
CuSiO3,3,top-down,Pmma,mmm,orthorhombic,0.1070000000000002,False,2.8620896,8.90250217,25.37814913
Li2CuP,3,top-down,P-6m2,-6m2,hexagonal,0.0,False,3.95935945,3.9593591969453508,22.327049
KHCO3,4,top-down,P2_1,2,monoclinic,4.4708,True,3.6590668297178808,5.60558324,26.563975013791385
InSiTe3,3,top-down,P-31m,-3m,trigonal,0.8586999999999998,False,7.14036719,7.14036641633414,23.85679818
Zn2Ni3O8,3,top-down,P2/m,2/m,monoclinic,0.9456000000000002,False,4.90619608,5.74656735,23.979165
BaSn2,2,top-down,P-3m1,-3m,trigonal,0.0,False,3.4392628,3.439262308104137,24.7265572
BaSi2,2,top-down,P-3m1,-3m,trigonal,0.0,False,3.20342021,3.2034202612327203,24.664268
CaInBr3,3,top-down,Pmma,mmm,orthorhombic,2.8152,True,4.17404165,11.38518819,26.43598958
InPF3,3,top-down,P3,3,trigonal,1.4274999999999998,False,6.119466570000004,6.119465472796863,20.25981472
ScClO,3,top-down,P4/nmm,4/mmm,tetragonal,2.7140999999999997,False,5.02800105,5.02800105,21.91972148
FePb2(CN)6,4,top-down,P-3,-3,trigonal,3.3291999999999997,False,7.00114785,7.001147499181296,26.54777
Br,1,top-down,Pbam,mmm,orthorhombic,1.3032000000000004,False,4.17798989,8.73691805,19.86158198
FeS,2,top-down,P4/nmm,4/mmm,tetragonal,0.0,False,3.59779411,3.59779411,22.56042472
NaSnN,3,top-down,P3m1,3m,trigonal,0.3869,False,3.42813406,3.4281342388007436,22.57209828
MgGa,2,top-down,P3m1,3m,trigonal,0.0,False,3.10076642,3.10076666920179,31.36838365
CuWO3F2,4,top-down,Pmma,mmm,orthorhombic,0.0,False,3.85192529,9.11367371,28.630575
CaGaN,3,top-down,P4/nmm,4/mmm,tetragonal,0.0,False,3.5541265,3.5541265,26.3162698
AgBiO2,3,top-down,P2_1/m,2/m,monoclinic,1.991,False,3.52016641,6.6794350863430445,23.757028007860956
Sn4Pd,2,top-down,P4/nbm,4/mmm,tetragonal,0.0,False,6.60843848,6.64390196,22.54156181
U(HO2)2,3,top-down,Pmna,mmm,orthorhombic,1.9658999999999995,True,3.41069503,9.28171239,25.634067
Bi2Pd,2,top-down,P4/mmm,4/mmm,tetragonal,0.0,False,3.31871555,3.31871555,23.987164
SrMnSn,3,top-down,P4/nmm,4/mmm,tetragonal,0.0,False,4.56186577,4.56186577,25.13686156
YbBi2,2,top-down,Pmm2,mm2,orthorhombic,0.3293999999999999,True,4.17541221,5.16216848,23.04799482
USeO5,3,top-down,P2_1/m,2/m,monoclinic,1.9944000000000002,False,4.307164974697276,9.42713472,23.363511813396585
FeTe,2,top-down,P4/nmm,4/mmm,tetragonal,0.0,False,3.59989231,3.59989231,24.07119085
LaWClO4,4,top-down,Pmn2_1,mm2,orthorhombic,2.6270000000000002,False,3.88631022,6.21311795,30.02744454
LiFeP,3,top-down,P4/nmm,4/mmm,tetragonal,0.0,False,3.65810173,3.65810173,24.082825
U(HO2)2,3,top-down,P2_1/c,2/m,monoclinic,2.4571,False,5.36554291,6.494158525057525,23.373723498211277
Li3Co(NiO3)2,4,top-down,P2/m,2/m,monoclinic,0.3769999999999998,False,2.77521857,5.669623599217219,24.18268941544639
Cu2IO3,3,top-down,P2_1/m,2/m,monoclinic,0.0,False,5.64879677,5.833703092749339,25.875992444716474
VAg(PS3)2,4,top-down,P2/c,2/m,monoclinic,0.0,False,5.87693504871962,10.75434141,23.82961
K2P2Pd,3,top-down,Pmma,mmm,orthorhombic,0.4013,False,5.68286604,6.2944513,26.051737
NaMgSb,3,top-down,P4/nmm,4/mmm,tetragonal,0.0,False,4.85546561,4.85546561,26.89638169
NaSnO,3,top-down,P4/nmm,4/mmm,tetragonal,0.0,False,3.84410359,3.84410359,27.97068071
La2I5,2,top-down,P2_1/m,2/m,monoclinic,0.2542000000000002,False,4.37891058,17.00590542,25.801607
CdPSe3,3,top-down,P-3,-3,trigonal,1.5337000000000003,False,6.58616809,6.5861678713968415,23.593658
BaTlCuO4,4,top-down,P4/mmm,4/mmm,tetragonal,0.0,False,3.73779359,3.73779359,37.61548355
SnClF,3,top-down,P2_1/m,2/m,monoclinic,3.8708,False,4.36938111,6.00580133,22.876718
Nb2CoS4,3,top-down,P-3m1,-3m,trigonal,0.0,False,3.3089862,3.3089859477294765,30.3053561
NpTe3,2,top-down,Pmma,mmm,orthorhombic,0.0,False,4.23276579,4.11471642,30.61283927
VPbO3,3,top-down,P4mm,4mm,tetragonal,0.0,False,3.84656233,3.84656233,23.41683081
ScSn3,2,top-down,P6/mmm,6/mmm,hexagonal,0.0,False,6.06543315,6.065433854019864,20.02398985
Rb3Nb2Br9,3,top-down,P-6m2,-6m2,hexagonal,0.4253,False,7.83155362,7.831552871152064,31.62203545
K2As2Pd,3,top-down,Pmma,mmm,orthorhombic,0.4231,True,5.79607714,6.43488998,26.0106495
Ba2Mn2TlO7,4,top-down,P4/mmm,4/mmm,tetragonal,0.0,False,3.77032384,3.77032384,30.19600883
Ba(BiO2)4,3,top-down,P-31m,-3m,trigonal,0.0,False,6.4444004,6.444399985556101,24.142621
LiMg6C,3,top-down,Pmm2,mm2,orthorhombic,0.0,False,3.31396508,8.478342,22.9292588
CeMg2,2,top-down,P-6m2,-6m2,hexagonal,0.0,False,3.10337468,3.1033745757812885,25.882754
CuAuO2,3,top-down,P2/m,2/m,monoclinic,0.0,False,2.80814738,6.087122810848051,20.90634824252386
Na2H10SO5,4,top-down,Pmma,mmm,orthorhombic,2.2075,False,6.4677531,8.54256089,24.798933
CrAgS2,3,top-down,P3m1,3m,trigonal,0.0,False,3.00121246,3.0012125011237463,25.764018
TaNi2Te3,3,top-down,P2_1/m,2/m,monoclinic,0.0,False,3.7069655,10.70138317049275,23.94795809227382
NaTlO,3,top-down,Pm,m,monoclinic,0.09679999999999989,False,3.61134499,6.069239903128099,28.166057708660226
La(BiO2)2,3,top-down,P-3m1,-3m,trigonal,0.0,False,4.0133426,4.013342587559219,26.08801184
TlPt2S3,3,top-down,P-3m1,-3m,trigonal,1.662,False,7.1078557,7.107855170590744,24.608682
Ta(NiTe)2,3,top-down,Pmma,mmm,orthorhombic,0.0,False,3.54552857,6.50884059,25.49067859
AgBi(PSe3)2,4,top-down,P3,3,trigonal,1.4659,False,6.70528234,6.705283035148175,23.69358326
AlCrF5,3,top-down,Pmmm,mmm,orthorhombic,0.0,False,3.70266775,7.60992406,22.945086
ErTe3,2,top-down,P4/nmm,4/mmm,tetragonal,0.0,False,4.3351443,4.33521046,28.93870516
LiClO2,3,top-down,P-42_1m,-42m,tetragonal,3.4167,True,4.73440628,4.73440628,23.75641368
Pb3SeO5,3,top-down,Pmc2_1,mm2,orthorhombic,3.0306,False,5.74709058,10.69166371,25.06792163
Li4TiS4,3,top-down,P-42m,-42m,tetragonal,2.52,False,5.93401389,5.93401389,24.94154935
ZnH4(NO4)2,4,top-down,P2_1/c,2/m,monoclinic,3.3044999999999995,False,5.81512729,8.310959779815338,24.856884173708462
BaTiO3,3,top-down,Pmm2,mm2,orthorhombic,0.7896000000000001,False,3.86812936,6.42892352,22.790131
LiCoSiO4,4,top-down,P2_1/m,2/m,monoclinic,0.8125000000000004,False,4.69402953401032,6.24865498,24.398928065368892
ErBiO3,3,top-down,P-3,-3,trigonal,3.3289,False,5.99164249,5.991642844443728,25.74889846
Tl3(MoO4)2,3,top-down,P3m1,3m,trigonal,0.0,False,6.1013411,6.101340685668146,27.578788
TmAg(PSe3)2,4,top-down,P312,32,trigonal,1.7993,False,6.60751473,6.607515829420991,23.602733
UTe3,2,top-down,P4/nmm,4/mmm,tetragonal,0.0,False,4.4015591,4.45426392,28.82106
CeZnPO,4,top-down,P-3m1,-3m,trigonal,0.0,False,3.95531955,3.955320195538068,28.507869
YbIO,3,top-down,P2_1/c,2/m,monoclinic,0.0,False,5.26199902,6.07598997,27.405809
HgBr2,2,top-down,P-3,-3,trigonal,2.0855,True,7.05967116,7.059671958259591,23.12378015
VMoO5,3,top-down,P4/n,4/m,tetragonal,1.8118000000000003,True,6.68713177,6.68713177,26.335502
MgCuGe,3,top-down,P4/nmm,4/mmm,tetragonal,0.0,False,3.79821454,3.79821454,28.671055
Mg2Co3O8,3,top-down,P2/m,2/m,monoclinic,0.0,False,5.10358289,5.75647762,24.266878
LiMn5O5F,4,top-down,P3m1,3m,trigonal,0.0,False,3.43536898,3.435471573860255,35.75715618007864
LiNiPO4,4,top-down,P2_1/m,2/m,monoclinic,3.7120999999999995,False,4.6914546190976205,6.13737702,23.151576622617043
Li3BiS3,3,top-down,P-3,-3,trigonal,2.7005999999999997,False,7.10107151,7.101070857612839,26.445988
K2GeTe4,3,top-down,P2_1/c,2/m,monoclinic,1.0579,True,8.36832002,9.919132599414658,30.76534279968587
LiMnO2,3,top-down,Pmmn,mmm,orthorhombic,0.0,False,2.89916895,4.33393005,25.932346
Gd2Br3,2,top-down,C2/m,2/m,monoclinic,0.14900000000000002,False,3.93792778,10.073977565456309,25.613969669771045
GdGa2Co,3,top-down,P4/mmm,4/mmm,tetragonal,0.0,False,3.977922962562098,3.9983451985853398,27.487691
FeBr2,2,top-down,P-3m1,-3m,trigonal,0.0,False,3.69301108,3.6930116872260386,22.99915
NaNO2,3,top-down,P2_1/m,2/m,monoclinic,0.0,False,4.49811219,4.78100022,26.357846
Mg3Si2H4O9,4,top-down,P31m,3m,trigonal,3.7282999999999995,True,5.3622543,5.36225459847363,25.37746
LuCoGe2,3,top-down,P4/nmm,4/mmm,tetragonal,0.0,False,4.00139328,4.00657856,26.878217
LiCdPO4,4,top-down,P2_1/m,2/m,monoclinic,2.9749,False,4.94278808,6.40159668,24.73152
Ba2Mn3Tl2O10,4,top-down,P1,1,triclinic,0.0,False,3.7665429716246996,3.7713729205380773,39.991469
Cu3OF5,3,top-down,P-1,-1,triclinic,0.0,False,4.489983780997102,5.30324729978392,26.761298
K2GeSe4,3,top-down,P2_1/c,2/m,monoclinic,1.9014,False,7.99571159,9.00977211,29.884509
Sb2O3,2,top-down,Pmmn,mmm,orthorhombic,2.5275,False,3.37307784,12.89823165,20.303773
Al2Si4O11,3,top-down,C2/m,2/m,monoclinic,4.2978000000000005,True,5.239079612438627,5.2418935071958686,26.756547
CaV2O5,3,top-down,Pmmn,mmm,orthorhombic,2.1352,False,3.99034794,9.89216828,24.392128
GeBi2O5,3,top-down,Pmc2_1,mm2,orthorhombic,2.1268000000000002,False,3.99377742,10.72876467,26.693379
BaSn2(HO2)2,4,top-down,P2_1,2,monoclinic,3.0797000000000003,False,5.775605,7.204338569103285,25.80477
InBi2Se4Br,4,top-down,P2_1/m,2/m,monoclinic,1.4497999999999998,False,4.1511984,17.897395421403775,24.996212
Zn(SnO2)4,3,top-down,Cm,m,monoclinic,1.3806,False,3.2929528208897643,7.618117284664165,27.743301
ZnCr2O5,3,top-down,Pmmn,mmm,orthorhombic,0.1648000000000005,True,3.90722835,10.74866938,27.021089
Ti3H2O7,3,top-down,P2_1/m,2/m,monoclinic,2.3748,False,3.82769357,9.550622931404083,28.263856
AlTeI7,3,top-down,Pc,m,monoclinic,1.9384999999999994,False,7.15703839,19.274970111264643,24.151076
LiAgF4,3,top-down,Pnc2,mm2,orthorhombic,1.7719000000000005,False,3.5325451,11.38985693,21.730671
CuHgSeCl,4,top-down,Pmc2_1,mm2,orthorhombic,0.8203,True,4.09062416,6.95855136,29.666996
Li2Cr4O13,3,top-down,C2,2,monoclinic,1.7403000000000004,False,6.53093221,7.770411881783714,24.921734973165364
Hg2AsCl2,3,top-down,P2/m,2/m,monoclinic,1.3778000000000006,False,8.10375393,9.09735317,30.991213
BaLaI5,3,top-down,P2_1/m,2/m,monoclinic,2.4471,False,4.76147157,17.46220023,25.424696
NaTiCuS3,4,top-down,P2_1/m,2/m,monoclinic,0.32199999999999995,False,3.67497557,9.6604371,26.900072
Mn2ZnS5,3,top-down,Pmmn,mmm,orthorhombic,0.0,False,3.56101547656903,13.875052723585991,24.491694
CuHgSeBr,4,top-down,Pmma,mmm,orthorhombic,0.9406000000000001,False,4.23914028,10.05832625,29.360107
Ho2Te5O13,3,top-down,P-1,-1,triclinic,3.1023,False,6.976777074663294,8.593026876700229,30.609019
Ta2VZn2O8,4,top-down,P2/c,2/m,monoclinic,1.1248,False,5.329258070015132,6.0245325540260435,28.489925
VAg2PO6,4,top-down,C2/m,2/m,monoclinic,2.0433,False,6.36771793,6.672492739053077,27.961599
Li2VP4O13,4,top-down,P-1,-1,triclinic,1.8039999999999998,False,4.98221992073883,7.8462557866185305,31.044028
Li3V2(O2F)2,4,top-down,Pm,m,monoclinic,1.1761,False,5.1715954,9.14013103,25.832832
Ta2O5,2,top-down,Pmmn,mmm,orthorhombic,3.9845999999999995,False,3.82981628,12.47951127,24.33648625
PdSeO3,3,top-down,P2_1/m,2/m,monoclinic,1.1385,False,3.98315395,6.52545331,24.011638