Formula,No. of Elements,Discovery Process,Space Group,Point Group,Crystal System,Band Gap,Is Gap Direct?,a,b,c
LiRe(OF2)2,4,top-down,P-42_1m,-42m,tetragonal,3.0970000000000004,False,4.71715838,4.71715838,27.120972
CdSbS2Cl,4,top-down,Pmc2_1,mm2,orthorhombic,1.2569,True,3.783645,10.33986719,25.525211
MoCl2,2,top-down,P4/mbm,4/mmm,tetragonal,2.4513000000000003,False,11.38145875,11.38829644,28.499779
InCu(MoO4)2,4,top-down,P2/c,2/m,monoclinic,1.1614,False,4.938307393643827,9.914180050478771,24.419816
V2ZnO5,3,top-down,Pmmn,mmm,orthorhombic,2.1768999999999994,False,3.80783676,11.48341988,24.246886
TePdI2,3,top-down,P-1,-1,triclinic,0.5473999999999997,False,4.089424507895798,7.029119708167795,27.64694384660906
LiVF4,3,top-down,P2_1/c,2/m,monoclinic,2.1953,True,5.05915491,7.33157757,26.034713
VZnO2,3,top-down,P1,1,triclinic,0.0,False,2.9060186556996386,7.351941410819416,29.303386472311107
LiMnPO4,4,top-down,P2_1/m,2/m,monoclinic,3.2106,True,4.9153002530182235,6.29649524,23.113941172340606
AgO2F,3,top-down,P2_1/m,2/m,monoclinic,0.0,False,3.89711879,4.590966527720229,25.45970721648653
CeBiS2O,4,top-down,P4/nmm,4/mmm,tetragonal,0.0,False,3.99459954,3.99459954,30.14244821
PtO2,2,top-down,P-3m1,-3m,trigonal,1.7371000000000003,False,3.1582415,3.158241137168801,21.895886
SbClO,3,top-down,P4/nmm,4/mmm,tetragonal,1.9965999999999997,False,3.77599857,3.77599857,25.241912
ZnNi2O5,3,top-down,Pmmn,mmm,orthorhombic,0.0,False,3.86706762,10.68520461,23.487872
MgFe4O9,3,top-down,P2/c,2/m,monoclinic,0.006400000000000183,False,8.228506233559415,8.58040678931408,27.049031
SbPO4,3,top-down,P2_1/m,2/m,monoclinic,4.3643,False,4.83012407317568,6.79198283,22.993543578541964
ZrBrN,3,top-down,P-3m1,-3m,trigonal,2.572,False,3.67616306,3.676162758264683,26.605318
Ta2CrO8,3,top-down,P2/c,2/m,monoclinic,0.0,False,4.872191381779936,5.164452360138481,27.294749
Mn2F5,2,top-down,P2/c,2/m,monoclinic,0.0,False,4.76159162,5.29969052,25.144703
Li2VO2F,4,top-down,Pmma,mmm,orthorhombic,0.6012,False,4.07030694,3.99328691,26.550635
Mg(HO)2,3,top-down,P3m1,3m,trigonal,4.0147,True,3.4020164,3.4020161172502594,22.817017
CaO2,2,top-down,P4/mmm,4/mmm,tetragonal,2.9144,False,3.22551121,3.22551121,21.519415
SnHC2O3,4,top-down,C2/m,2/m,monoclinic,2.5968999999999998,True,7.8507905,8.292622266619086,25.36280008188092
Sr4As2O,3,top-down,P4/mmm,4/mmm,tetragonal,0.0,False,4.89487152,4.89487152,31.980616
LiVO3,3,top-down,P2/c,2/m,monoclinic,3.2356999999999996,False,5.764026817653356,9.716979578906713,27.213372
HgPSe3,3,top-down,P-1,-1,triclinic,1.3626,False,6.6447698965280635,6.616179672169617,24.424885
Hg2WO4,3,top-down,P2/c,2/m,monoclinic,2.2392,True,4.9876699085429035,8.154777859219687,24.538068
CuBi(PSe3)2,4,top-down,P3,3,trigonal,1.2766,False,6.62963022,6.629629786018528,23.63078055
K2PAuS4,4,top-down,P2_1/m,2/m,monoclinic,1.041,False,7.20162954,7.223700697149087,33.642120906857365
V2Te2O7F2,4,top-down,P-1,-1,triclinic,2.4907,False,4.980951925290821,7.255026417149506,24.42762796312442
U(BO3)2,3,top-down,C2,2,monoclinic,2.2717,False,4.22954335,6.679827443123704,23.5968
FeF4,2,top-down,Pc,m,monoclinic,1.5475999999999992,False,5.1422946180605855,5.138468383756894,22.458968
LaHBr2,3,top-down,P-6m2,-6m2,hexagonal,3.7233,False,4.1089455,4.1089454863464585,23.98890963
Au2Se3O10,3,top-down,Cm,m,monoclinic,1.0183999999999997,False,6.36456476,9.1376414413908,24.060318
TaNi2TeSe,4,top-down,Pmma,mmm,orthorhombic,0.0,False,3.4664835,6.57097076,25.061684
Li6Br3N,3,top-down,P2/m,2/m,monoclinic,1.8215000000000001,False,6.297946846121991,5.757704569430369,24.322994
Li3SbS3,3,top-down,P-3,-3,trigonal,2.6234,False,7.07103672,7.07103662803356,25.917628
SrH2(SeO3)2,4,top-down,P-1,-1,triclinic,4.1666,True,5.904550652661986,7.351602392257623,28.030954545124274
Y2Mn2S2O5,4,top-down,P4/mmm,4/mmm,tetragonal,0.0028000000000001357,False,3.77102092,3.77359279,29.432018
SrP2(H2O3)2,4,top-down,P-1,-1,triclinic,5.205,False,5.79206739625758,7.252744721414931,28.20943549127858
ZnSnO2,3,top-down,P1,1,triclinic,1.1668,False,3.3379080718625223,8.158380603295088,27.599611
Bi4Te2Br2O9,4,top-down,P4mm,4mm,tetragonal,1.1641,True,5.64847938,5.64847938,26.672182
BN,2,top-down,P4/mbm,4/mmm,tetragonal,4.097700000000001,False,4.92891681,4.93048272000055,19.992948440002213
Li2VF6,3,top-down,Pmn2_1,mm2,orthorhombic,2.1651,False,5.72603431740201,8.169175161173214,25.00345473
Sb(MoO4)2,3,top-down,P2/c,2/m,monoclinic,0.0,False,4.90373131,5.48585416,29.450097
Zn2In2S5,3,top-down,P3m1,3m,trigonal,0.0,False,3.90021877,3.9002188929551282,32.613946
Sm(AlCl4)2,3,top-down,P2/c,2/m,monoclinic,0.2571,False,6.87746282,12.52147377,24.808889
BaSbSe2F,4,top-down,P-1,-1,triclinic,1.3235000000000001,False,6.260819473761615,6.325897171637856,30.924355
CaGeO3,3,top-down,P-1,-1,triclinic,3.5625,False,7.142972713551407,7.818812356611815,29.242229
Si2Ag6O7,3,top-down,P2/c,2/m,monoclinic,0.7626,False,7.991907735524014,10.116234086117496,23.78979
Li2VF6,3,top-down,P-3m1,-3m,trigonal,1.9943,False,5.76207130789742,5.762070855482019,22.806717
TaAsO4,3,top-down,Pmc2_1,mm2,orthorhombic,1.6195,True,3.8496484,5.88931252,29.385997
Hg3SO6,3,top-down,P1,1,triclinic,0.9359000000000002,False,7.0564007465789205,7.007694081208091,21.993404
Mg(Mo3O8)2,3,top-down,P3m1,3m,trigonal,0.7297000000000002,False,6.16664267,6.166641800450322,26.898843
KRe2O4F7,4,top-down,P2,2,monoclinic,3.1559000000000004,False,5.03985564,5.409716142940799,27.118092382473126
TmFeGe2,3,top-down,P4/nmm,4/mmm,tetragonal,0.0,False,4.08041144,4.08123253,26.885887
Eu(ReO4)2,3,top-down,P-3,-3,trigonal,0.3146,False,6.256471055485422,6.25641297592007,27.413083
VSe,2,top-down,P4/nmm,4/mmm,tetragonal,0.0,False,3.58511551,3.58511551,23.448734
CuSe2Cl,3,top-down,P222_1,222,orthorhombic,0.7783000000000002,False,4.95176778,7.72332109,22.779884
Tl2GeS3,3,top-down,P-1,-1,triclinic,2.2527,False,6.649728756598964,8.4200995375434,24.249830488287913
Li2Fe(PO4)2,4,top-down,P-3,-3,trigonal,0.0,False,4.877325416413875,4.877187595347492,30.218076
TeMoCl7O,4,top-down,P2_1/c,2/m,monoclinic,2.4777000000000005,False,11.64930827,12.61362474,27.543961
RbReSO3,4,top-down,P2_1/c,2/m,monoclinic,2.7504,True,7.67444252,8.1731821,27.617607
InH5(NF)2,4,top-down,P2_1/c,2/m,monoclinic,3.8653999999999997,True,5.41721003,12.07341507,24.705102
CdSb2Se3Br2,4,top-down,P2_1/m,2/m,monoclinic,1.1887000000000003,False,4.04312245,18.63673089,24.717042
Mg(SbO2)4,3,top-down,P1,1,triclinic,1.9336999999999998,False,3.256505134487322,9.138494719149993,24.851343
Fe3OF7,3,top-down,P3m1,3m,trigonal,2.7605000000000004,False,6.11496872,6.1149687677463955,22.045628
Ta2MoO8,3,top-down,P2/c,2/m,monoclinic,0.9039000000000001,False,5.112424381379536,5.963736517779007,27.307210770531295
LiVF6,3,top-down,P2_1,2,monoclinic,3.1864999999999997,True,4.96296119,4.66782139,27.266001
MnPS3,3,top-down,P-31m,-3m,trigonal,0.6553999999999998,True,6.0742463,6.073855576612234,23.245653
V2ZnS5,3,top-down,Pmmn,mmm,orthorhombic,0.0,False,4.39756898,14.19667368,24.981053
Bi7(S3Cl)3,3,top-down,Pm,m,monoclinic,0.4606999999999999,False,4.10582547,11.001001207397307,33.60459630235171
K5NO4,3,top-down,P1,1,triclinic,0.0,False,4.500922461909646,5.722533798519656,27.718026
LiCuO2,3,top-down,P-1,-1,triclinic,0.6249999999999996,False,6.029921147751145,5.407779173311194,25.051146
Pr(ReO4)2,3,top-down,P-3,-3,trigonal,0.0,False,6.278016672863676,6.277481588298569,27.141839254097448
Ta2O5,2,top-down,Pm,m,monoclinic,3.1272,True,3.13494965,6.00051494239823,23.856205332789195
FeI2,2,top-down,P-3m1,-3m,trigonal,0.0,False,4.00189282,4.001892643315534,23.240094
ScBrO,3,top-down,P4/nmm,4/mmm,tetragonal,3.4976000000000003,False,3.60880006,3.60880006,25.3276175
W2O5,2,top-down,Pmmn,mmm,orthorhombic,2.4328,True,3.96317644,11.7945852,24.454822
TiS3,2,top-down,Pmmn,mmm,orthorhombic,0.27549999999999986,True,3.4120422,5.02663484,25.693982
Hf(Te2Cl3)2,3,top-down,P-1,-1,triclinic,1.1897999999999995,False,7.648126063464314,9.051341857678858,23.739927
YCBr,3,top-down,C2/m,2/m,monoclinic,0.0,False,3.81305731,4.004752365866179,26.616207
BaP2(HO)4,4,top-down,P4/nbm,4/mmm,tetragonal,5.243,False,6.21624125,6.24210693,26.258256
CuBrO2,3,top-down,P222_1,222,orthorhombic,0.45870000000000033,True,3.6414405,7.10228864,22.961276
SnGeS3,3,top-down,P2_1/c,2/m,monoclinic,1.9073,False,6.87040976,10.4782648,27.343969
GeClF,3,top-down,P4/nmm,4/mmm,tetragonal,2.8711,False,3.69526919,3.69526919,25.063772
Te3As2,2,top-down,P2_1/m,2/m,monoclinic,0.5707,False,4.05274189,10.13873212,26.200921
Tl(IO3)3,3,top-down,P-3,-3,trigonal,2.5196,False,9.953100460393888,9.954830845659485,23.237154
Te2Pt,2,top-down,P-3m1,-3m,trigonal,0.6532,False,3.99735234,3.997351790665229,22.725334
MgSb2O5,3,top-down,Amm2,mm2,orthorhombic,0.0,False,3.89966163,5.516218583066413,23.84586964
YIO,3,top-down,P4/nmm,4/mmm,tetragonal,3.5429,False,3.94156885,3.94156885,26.053777
MnBiSe2I,4,top-down,P2/m,2/m,monoclinic,0.0017000000000000348,False,3.99046803,10.600730652732672,24.46442609718938
CoSb2Br2O3,4,top-down,P-1,-1,triclinic,2.3593,False,5.235046171855116,8.082768343415148,26.064632
Li2Mn(PO4)2,4,top-down,P-1,-1,triclinic,1.3615,False,4.7536453686224265,4.90546007391283,29.105117
Ba(BSe3)2,3,top-down,C2/m,2/m,monoclinic,2.1729000000000003,False,6.87480307703163,6.874803484824015,22.879151
Ba2Tl2CuO6,4,top-down,P4/mmm,4/mmm,tetragonal,0.0,False,3.93510863,3.93510863,33.44830089
Ta2PdS6,3,top-down,C2/m,2/m,monoclinic,0.16280000000000028,False,3.29400167,9.313269816581037,23.653991
AgGeO3,3,top-down,Pmc2_1,mm2,orthorhombic,0.0,False,3.1622331384877187,9.27285661149714,26.070726
Hf3(Al2C3)2,3,top-down,P-3m1,-3m,trigonal,0.0,False,3.30632152,3.3063212581998442,34.67466816
Li8Cr3TeO12,4,top-down,P2,2,monoclinic,0.7404,False,5.164829248955876,5.096196381402668,26.97751839
AgCSN,4,top-down,Pmn2_1,mm2,orthorhombic,2.7261999999999995,True,4.118147,11.37134325,22.992947
Ta2WO8,3,top-down,P2/c,2/m,monoclinic,1.5489000000000002,False,5.130098940256595,5.968207756107408,27.415931
PbWO4,3,top-down,P2_1/c,2/m,monoclinic,3.4536999999999995,False,5.10630859,13.423569011612168,23.58927624472936
TaSe2,2,top-down,P-6m2,-6m2,hexagonal,0.0,False,3.47322664,3.473226603613118,23.356406
Li4Ni(PO3)6,4,top-down,P1,1,triclinic,3.0831,False,7.281089861366512,7.2931874114275415,29.776769
CoO2,2,top-down,P-3m1,-3m,trigonal,0.0,False,2.94425055,2.9442499298719547,21.882022
Cd(HO)2,3,top-down,P-3m1,-3m,trigonal,2.2721,True,3.54913164,3.549131439415418,24.180631
MnO2,2,top-down,Pmmn,mmm,orthorhombic,0.0,False,2.8930093,3.82872975,24.184989
Sb,1,top-down,P2_1/m,2/m,monoclinic,0.0,False,4.42166832,4.54224258,23.344567
FeOF,3,top-down,Pmmm,mmm,orthorhombic,0.8141999999999996,False,2.96832203,6.45090704,22.739228
Zr2Al4C5,3,top-down,P-3m1,-3m,trigonal,0.0,False,3.33816521,3.3381646238946634,31.828488
Bi2Te5Pb2,3,top-down,P-3m1,-3m,trigonal,0.0,False,4.48709614,4.487096336101548,35.736754
Zn(SnN)2,3,top-down,P-4m2,-42m,tetragonal,0.0,False,3.3357071813987926,3.3363328777887395,24.933321
CuBrO2,3,top-down,P2/m,2/m,monoclinic,0.0,False,2.9380393,6.01374639,21.128106
NbI2O,3,top-down,Pmm2,mm2,orthorhombic,0.7807,False,3.9379734217176368,7.537349403109045,24.599342
LiFeF4,3,top-down,P2/m,2/m,monoclinic,3.1727,False,3.91619475,12.88419685,29.091294
K2Ca(NO2)4,4,top-down,C2/m,2/m,monoclinic,2.4073,True,5.331190766210338,5.331190566384738,26.894917
ZrAl5Ni2,3,top-down,P4/mmm,4/mmm,tetragonal,0.0,False,4.11676136,4.11676136,26.987706
AlNiF5,3,top-down,Pmmm,mmm,orthorhombic,0.16570000000000018,False,3.70676887,7.44752316,23.70232
HfBrN,3,top-down,P-3m1,-3m,trigonal,3.135,False,3.6168481,3.6168476540795376,26.557269
HgC2(SN)2,4,top-down,C2/m,2/m,monoclinic,2.5044000000000004,False,4.000157127550725,5.82449912137565,24.223218
Ca(ClO2)2,3,top-down,P4/nbm,4/mmm,tetragonal,2.9306,False,5.7136113,5.72359597,24.266682
CrPS4,3,top-down,C2/m,2/m,monoclinic,0.7349000000000001,True,6.548197388738139,6.54819786144562,23.708705
AgCNO,4,top-down,P2_1/m,2/m,monoclinic,3.2024,False,3.57047898,6.50688016,26.92667
Ni(ClO4)2,3,top-down,P-3,-3,trigonal,4.031499999999999,False,4.75012497,4.750124541156636,26.356739
Te(HO2)2,3,top-down,Pc,m,monoclinic,2.0251,True,4.91476564,5.24508572,24.185362
Sm2(PPt2)3,3,top-down,P-4m2,-42m,tetragonal,0.0,False,4.15289665,4.15289665,29.428478
Ba2Ti3O8,3,top-down,P4/mmm,4/mmm,tetragonal,0.7437,False,3.94255777,3.94261657,28.254458
Tl2Pt(CN)4,4,top-down,P2_1/c,2/m,monoclinic,2.9434000000000005,False,7.17180954,9.77752709,25.042306
Nb3IrSe8,3,top-down,C2,2,monoclinic,0.0,False,6.9368865159231,6.9445982130797015,23.682274
CaBi2O5,3,top-down,Pmm2,mm2,orthorhombic,0.0,False,3.926443878498728,5.227519623649834,24.598852
V2O5,2,top-down,P2_1/m,2/m,monoclinic,1.7748,False,3.60492475,6.34137617,27.12244
Sn(WO4)2,3,top-down,P-1,-1,triclinic,3.4085,True,5.02652238122234,5.466306809595176,25.42212
LiCu(PO3)3,4,top-down,P-1,-1,triclinic,0.4016000000000002,False,6.110941467630251,6.903620008077153,25.92098192209717
NbS3,2,top-down,P2_1/m,2/m,monoclinic,0.40680000000000005,False,5.027518431692406,6.801377057092799,26.288405
SrH9ClO5,4,top-down,P-1,-1,triclinic,4.7732,False,5.997582152609659,7.634644475358345,27.365069
Ge3(BiTe3)2,3,top-down,P3m1,3m,trigonal,0.0,False,4.28866648,4.288666419344631,38.682375
CdSbS2Br,4,top-down,P2/m,2/m,monoclinic,1.1367000000000003,False,3.8241282,10.42933588,25.644025
Ag2S,2,top-down,P2_1,2,monoclinic,1.6869999999999998,False,5.77941827,5.78303281,22.46983
In2Te5,2,top-down,C2,2,monoclinic,1.1032000000000002,False,4.34627527610908,8.632865138085313,24.090309
Bi3O2F5,3,top-down,Pmc2_1,mm2,orthorhombic,3.5966000000000005,False,5.6082897,5.92213649,28.270661
Sb(WO4)2,3,top-down,P-1,-1,triclinic,0.0,False,5.018615932507335,5.602328112157059,25.40871
Ba4As2O,3,top-down,P4/mmm,4/mmm,tetragonal,0.0,False,5.18581735,5.18581735,32.710314
MoPO5,3,top-down,P4/n,4/m,tetragonal,3.1591,False,6.09723999,6.09723999,26.12131
KAsO2,3,top-down,Pbcm,mmm,orthorhombic,4.1418,False,5.46421986,7.39141844,25.206607
CaGe2WO6,4,top-down,P2/c,2/m,monoclinic,2.2923,False,5.36556205,8.61214939,25.176841
SmIO,3,top-down,P-3m1,-3m,trigonal,2.7143,True,4.01261277,4.01261323888222,27.325181
Cu3Te2(BrO3)2,4,top-down,C2/m,2/m,monoclinic,0.0,False,5.656676109195796,5.656675746357276,25.843368
CaBiClO2,4,top-down,P2_1/m,2/m,monoclinic,3.1975,False,4.27924764,7.80574047,26.997434
AlF3,2,top-down,Pmma,mmm,orthorhombic,7.7803,False,3.628018312690097,5.637926236335019,22.851863
Ca3SiBr2,3,top-down,Cm,m,monoclinic,0.0,False,4.48518275,4.5370218852945,28.98863
Te2Pd3Pb2,3,top-down,Pmmn,mmm,orthorhombic,0.0,False,5.81026323,8.82467222,24.261935
LiTeHO4,4,top-down,Pm,m,monoclinic,2.0183,False,5.17692296,6.13362495,24.270896
Tb5Br8,2,top-down,P2/m,2/m,monoclinic,0.0,False,3.91452446,13.86201737,26.17733
HAuO2,3,top-down,P2/m,2/m,monoclinic,1.3863000000000003,False,3.09715442,4.52022577,21.12421
Mg(BiO2)2,3,top-down,P2_1/m,2/m,monoclinic,2.665,False,3.3685857127228034,10.14558787897553,23.936834
LiCuO2,3,top-down,Cm,m,monoclinic,0.5035999999999996,False,2.71558888,5.691633978927885,24.832123
CoS2,2,top-down,P-3m1,-3m,trigonal,0.0,False,3.22143321,3.2214338650892644,22.538735
FeOF,3,top-down,Pmmn,mmm,orthorhombic,1.9567999999999999,False,3.07329887,3.89553102,24.357418
CuH6BrN2,4,top-down,P2/c,2/m,monoclinic,2.1595999999999997,True,5.715752839186229,6.525124643239572,24.856551
BiO2,2,top-down,Pmc2_1,mm2,orthorhombic,0.36549999999999994,False,3.44409247,10.54377382,30.972526
Li2UO4,3,top-down,P4/mmm,4/mmm,tetragonal,0.0,False,4.2075531628094875,4.207552876307097,27.28357095
Mg(SnO2)2,3,top-down,C2/m,2/m,monoclinic,1.3815,False,3.287563010227075,6.8872098234659545,27.868572
TmMg5,2,top-down,Cm,m,monoclinic,0.0,False,3.16653994,6.137385884174379,25.403689
LuBiO3,3,top-down,P-3,-3,trigonal,3.238,False,5.879173907191204,5.879214276279392,25.848972
VPbClO3,4,top-down,P2_1/m,2/m,monoclinic,2.4215000000000004,False,5.39513536,7.20754845,23.332738
VO2F,3,top-down,P2_1/c,2/m,monoclinic,1.7287,True,5.30114149,5.62562523,24.745227
CuAgO2,3,top-down,P2/m,2/m,monoclinic,0.0,False,2.79053389,6.1359635,21.504629
CuCN2,3,top-down,Pmma,mmm,orthorhombic,0.0,False,2.96225356,9.40187589,21.431803
KBi2F7,3,top-down,P1,1,triclinic,0.22999999999999998,True,4.139073660953656,4.127935245239106,29.181058
CaTlCl3,3,top-down,Pmma,mmm,orthorhombic,3.5637,True,4.048351091728838,10.69345427,24.3122895019069
Ba(CoO2)4,3,top-down,P-31m,-3m,trigonal,0.012100000000000222,False,5.49923569,5.499235887605524,24.452919
Ce4C2Br5,3,top-down,Pmmm,mmm,orthorhombic,0.0,False,3.8282135902343613,8.17938443325204,25.976489
Hg3AsS4Br,4,top-down,P3m1,3m,trigonal,2.0761999999999996,True,7.44739946,7.44739896247663,23.20422
VF4,2,top-down,P2_1/c,2/m,monoclinic,2.3711,False,5.13212604,5.36388135,23.408033
CrF2,2,top-down,P2_1/c,2/m,monoclinic,3.0558999999999994,False,3.56197165,5.58389934,21.526803
CrPO5,3,top-down,P-1,-1,triclinic,0.3777999999999997,False,5.096455310911712,8.18162209970904,29.73147630067346
Al2Os,2,top-down,P4/mmm,4/mmm,tetragonal,0.0,False,3.01843499,3.01843499,22.696954
LiVF5,3,top-down,P2_1,2,monoclinic,1.9259000000000004,False,5.08007405,5.86820884,24.396953
Sr2GaNi2O7,4,top-down,Pm,m,monoclinic,0.0,False,5.021942056545542,5.39962142844894,29.649552
Ga2NiS4,3,top-down,P-3m1,-3m,trigonal,0.0,False,3.64128638,3.641286425436649,28.868563
Bi2Pd,2,top-down,P2_1/m,2/m,monoclinic,0.0,False,4.242573263104445,5.4465066163273,24.409279
V3OF11,3,top-down,P1,1,triclinic,1.6787,True,5.224259878555459,7.227943585020881,24.856926
FeS2,2,top-down,Pcca,mmm,orthorhombic,0.0,False,5.668254839552395,5.735911492934526,22.948949
Ta2Te3,2,top-down,C2/m,2/m,monoclinic,0.0,False,3.487688040010702,10.42884479300428,24.966475
TiMn3O8,3,top-down,P-3m1,-3m,trigonal,1.6959000000000009,True,5.875504440086326,5.875507594071104,21.922918
Fe2C2O7,3,top-down,C2,2,monoclinic,2.1098999999999997,False,4.932202854577265,4.938189694430772,24.995645
La4C2Br5,3,top-down,Pmmm,mmm,orthorhombic,0.0,False,4.034751789141399,8.301833385246999,26.123411
SmSI,3,top-down,P-3m1,-3m,trigonal,2.8746,False,4.56807157,4.568071622990176,27.70980911
BiTeBr,3,top-down,P3m1,3m,trigonal,1.6510000000000002,False,4.318165,4.318165746745295,23.590562
TiSnO3,3,top-down,P-3,-3,trigonal,2.2146,False,5.11188525,5.1118854884843,24.414948
BaSb2F12,3,top-down,P1,1,triclinic,3.5225,True,5.69209625163741,5.720151132897008,27.228435
PbF4,2,top-down,P4/mmm,4/mmm,tetragonal,2.5194,False,4.36509011,4.36509011,23.993565
LiMn7O7F,4,top-down,P3m1,3m,trigonal,0.0,False,3.45009338462225,3.450093248503425,60.789905
Zn2CrN2,3,top-down,C2/m,2/m,monoclinic,0.0,False,4.457363080801784,5.320395302463821,23.295008
HoS,2,top-down,P4mm,4mm,tetragonal,0.0,False,3.7196753146478994,3.7196757167246615,20.412076
BaLaCl5,3,top-down,P2_1/m,2/m,monoclinic,3.7746000000000004,False,4.45721159,15.44381015,24.626554
SmTe3,2,top-down,P4/nmm,4/mmm,tetragonal,0.0,False,4.37616206,4.37616206,29.325055
Te3SeO8,3,top-down,P-1,-1,triclinic,2.7611,False,4.913414717031135,6.895744316796679,29.780722
Bi2Rh3S2,3,top-down,C2/m,2/m,monoclinic,0.0,False,6.92356626038421,6.923566147904205,23.621169
Mn3CrO8,3,top-down,P-3m1,-3m,trigonal,0.9251000000000005,False,5.8446893892590595,5.845704891855278,21.929187
Co(ReO4)2,3,top-down,P-3m1,-3m,trigonal,2.1445,False,5.78525881,5.785258664083733,27.001952
CrP2S7,3,top-down,C2,2,monoclinic,0.03600000000000003,False,6.3557984265704075,6.355798529596535,23.519958
Ba2Cr3O8,3,top-down,P4/mmm,4/mmm,tetragonal,0.0,False,3.8625050074391707,3.862505015509238,28.19966022233261
Y2GeI2,3,top-down,P-3m1,-3m,trigonal,0.15759999999999996,False,4.2233987,4.223398851978649,27.166957
Yb3(SF2)2,3,top-down,P4/mmm,4/mmm,tetragonal,0.0,False,3.79534992,3.79534992,30.70741
BaCr4O8,3,top-down,P-31m,-3m,trigonal,0.0,False,5.5293923,5.529392481332809,24.547956
CuS2,2,top-down,Pm,m,monoclinic,0.0,False,3.3235543,5.2510164,22.830344
LuSBr,3,top-down,Pmmn,mmm,orthorhombic,2.9225000000000003,False,3.93530837,5.52513848,26.041584
Al(HO)3,3,top-down,P2_1/c,2/m,monoclinic,4.376200000000001,True,5.06438546,8.82544592,23.706964