Formula,No. of Elements,Discovery Process,Space Group,Point Group,Crystal System,Band Gap,Is Gap Direct?,a,b,c
Bi2Pt,2,top-down,P-3m1,-3m,trigonal,0.0,False,7.22202711,7.222027984825491,22.83558452
CuSi2P3,3,top-down,Pm,m,monoclinic,0.0,False,3.66110558,6.450120684055183,26.743716936675842
Ce(SiAu2)2,3,top-down,P4/mmm,4/mmm,tetragonal,0.0,False,4.2959807,4.30696124,24.85877116
CaMnSn,3,top-down,P4/nmm,4/mmm,tetragonal,0.0,False,4.40228393,4.40228393,24.88029226
SrMnGe,3,top-down,P4/nmm,4/mmm,tetragonal,0.0,False,4.00445438,4.00445438,28.03658292
LaTe2Se,3,top-down,P4/nmm,4/mmm,tetragonal,0.0,False,4.33990789,4.34133705,29.03586304
ScAg(PS3)2,4,top-down,P312,32,trigonal,2.0441000000000003,False,6.19025612,6.1902557413937,23.38939022
FeBr3,2,top-down,P-31m,-3m,trigonal,0.04010000000000025,False,6.19455864,6.194557872766134,22.74500339
MnNiO3,3,top-down,P-3,-3,trigonal,1.4054,False,4.98791269,4.987912692436025,25.07258499
Li2Fe3F8,3,top-down,P-3m1,-3m,trigonal,3.4848,True,6.22945146,6.229452330853273,23.50292315
VAg(HO2)2,4,top-down,P2_1/m,2/m,monoclinic,2.1940999999999997,False,3.77679377,6.324053018687188,28.24453866147924
LiCoPO4,4,top-down,P-31m,-3m,trigonal,0.0,False,4.86219207,4.862192538593251,30.116196
Zn(Mo3O8)2,3,top-down,P3m1,3m,trigonal,0.5918000000000001,False,6.17749468,6.177495158675726,26.27356164
LiFe2F7,3,top-down,P2_1/m,2/m,monoclinic,3.5735,False,5.925730962229908,9.31561108,24.020045
ZnB2(CN)8,4,top-down,P-3m1,-3m,trigonal,5.220599999999999,False,7.53944839,7.539448546622048,29.789942
ZnCu(GeO3)2,4,top-down,P2/c,2/m,monoclinic,0.16670000000000051,True,5.132589125643752,9.862394439751721,24.85953345
LiCuPO4,4,top-down,P-42_1m,-42m,tetragonal,0.0,False,4.2835914,4.31830868,26.084149
TiNb2Zn2O8,4,top-down,P-1,-1,triclinic,0.22980000000000012,False,5.289090554867312,5.983295759068168,28.642879779624952
CaPbI4,3,top-down,P2_1/c,2/m,monoclinic,2.4553,False,7.47256449,14.356354385165771,27.542548
Hg3SbAsS3,4,top-down,P2_1/c,2/m,monoclinic,1.4957000000000003,False,4.37117147,19.537619639171584,29.427133482317057
Mn3V3(TeO8)2,4,top-down,P1,1,triclinic,0.9745000000000004,False,5.814576802634897,5.959836860293439,28.27787969097093
MoAs2O7,3,top-down,P2_1/c,2/m,monoclinic,2.8827000000000003,False,4.61078056,19.20632145644968,26.02203603677265
CaTeO3,3,top-down,P2_1,2,monoclinic,3.3697,False,5.66173495,8.487500843923335,31.19398652825183
KRbMg6O7,4,top-down,P4mm,4mm,tetragonal,0.05800000000000005,False,4.29882014,4.29882014,27.758198
HfFeCl6,3,top-down,P312,32,trigonal,0.09450000000000003,False,6.23078645,6.230787921360855,22.678433
TeO3,2,top-down,P31m,3m,trigonal,0.9753999999999996,True,6.4502439,6.450245182297424,23.502751
V2O5,2,top-down,Pmn2_1,mm2,orthorhombic,2.617,False,5.93800351,8.5463992,26.097426
ZrHCl,3,top-down,P-3m1,-3m,trigonal,0.0,False,3.34706347,3.3470623376177704,26.514014
NaTeF5,3,top-down,Pmc2_1,mm2,orthorhombic,5.3311,False,6.06803014,10.08831869,25.116848
Li2Mo(PO4)2,4,top-down,P-3,-3,trigonal,0.0,False,5.00466756,5.0046669722438315,30.171796
I(NO3)2,3,top-down,P-3,-3,trigonal,0.0,False,4.7132156400000005,4.713215560509067,24.836651
Te(HO2)2,3,top-down,P2_1/c,2/m,monoclinic,1.9849000000000006,True,4.89946857,5.24920069,24.125075
Li2V3F8,3,top-down,P-3m1,-3m,trigonal,2.6094,True,6.34125536,6.341255046222233,24.300824
CeTe3,2,top-down,P4/nmm,4/mmm,tetragonal,0.0,False,4.43047223,4.4288583,29.125406
V3CrO10,3,top-down,P-4m2,-42m,tetragonal,0.24619999999999997,False,6.5341868,6.5341868,22.121023
GdBr,2,top-down,P-3m1,-3m,trigonal,0.0,False,3.80687532,3.8068732038580206,26.800199
Sn3Pd,2,top-down,P4/mbm,4/mmm,tetragonal,0.0,False,6.40143238,6.4008276,25.862669
LaBr2,2,top-down,P-6m2,-6m2,hexagonal,0.6842000000000001,False,4.10198727,4.101987576545304,23.835633
BaNiSn3,3,top-down,P4mm,4mm,tetragonal,0.0,False,4.88503599,4.88503599,23.559787
RbHgSbSe3,4,top-down,P2_1/c,2/m,monoclinic,1.8422999999999998,True,9.95910952187251,11.1471713,25.46833
Ag2SO3,3,top-down,P2_1/c,2/m,monoclinic,2.9361000000000006,True,8.99618191,10.273638040439817,18.145804
Mg(SbO2)2,3,top-down,P2_1,2,monoclinic,2.8453,True,6.410447885980768,9.655541693411825,26.813591
Ge5F12,2,top-down,P2_1/c,2/m,monoclinic,4.0551,True,7.18680901,8.124124921821046,26.668061
VBiO5,3,top-down,P2_1/c,2/m,monoclinic,0.0,False,8.84376263,10.29142086,23.603724
Li2V(CO3)3,4,top-down,Pma2,mm2,orthorhombic,2.6002,False,9.74744317,9.49542025,22.594371
MgSb3P3O13,4,top-down,P2_1/m,2/m,monoclinic,2.2859,False,6.91605546,11.37354823583297,26.370309
Ba2Tl2Sn3O10,4,top-down,P1,1,triclinic,0.0,False,3.8974366160930662,3.8140522564692767,61.361573
CaPH5O6,4,top-down,Pc,m,monoclinic,4.7462,True,5.7110129376159975,5.908612792353375,27.955927
ZnTeO3,3,top-down,Pca2_1,mm2,orthorhombic,3.3109999999999995,True,6.25267957,11.51372513,23.551619
Ta3Br7,2,top-down,Pmna,mmm,orthorhombic,1.2686000000000002,True,11.76781666,13.97999853,26.308894
BaH4O3,3,top-down,Pmc2_1,mm2,orthorhombic,4.1383,True,3.85530048,6.65550064,26.210713
SnO2,2,top-down,P3m1,3m,trigonal,0.028900000000000148,False,6.443750533304538,6.44546213057452,35.305342
Cr3Se2ClO8,4,top-down,P2_1/m,2/m,monoclinic,0.4977999999999998,False,6.320449552561486,9.84377982380923,26.09597
NdPb8F19,3,top-down,Cm,m,monoclinic,3.5511999999999997,False,4.118734612735736,4.1214456477976755,69.229357
BaSn4O7,3,top-down,P3m1,3m,trigonal,0.5962000000000001,False,7.20254271,7.202543672617232,25.296555
NaH4ClO2,4,top-down,P2_1/c,2/m,monoclinic,4.4388,True,6.34361093,9.78200197,24.474276
Li3Sn(PO3)6,4,top-down,P1,1,triclinic,0.4952999999999994,False,7.556158884316286,7.270362524141736,29.452199
Cu2H2CO5,4,top-down,P2_1/c,2/m,monoclinic,0.0,False,10.525413653864875,11.86106327,21.451298
Mo3Se2ClO8,4,top-down,P2_1,2,monoclinic,1.4081000000000001,False,7.170014987098232,10.015478752867734,25.801738
AlCuF5,3,top-down,Pmmm,mmm,orthorhombic,0.0,False,3.66001468,7.33254817,22.82967352
KTeF5,3,top-down,Pbcm,mmm,orthorhombic,5.203200000000001,True,7.07669732,12.82979302,24.557568
Li2CrP4O13,4,top-down,P-1,-1,triclinic,0.34399999999999986,True,4.952012339365324,7.840996493914883,31.82178
SbO2,2,top-down,P-1,-1,triclinic,2.2121999999999997,False,6.104699578891359,9.656072015993544,30.457441
LiCrP4O13,4,top-down,P1,1,triclinic,0.0,False,5.036956617895042,7.777490178358851,32.686972
HfTe3Se8,3,top-down,P-1,-1,triclinic,0.5354999999999999,False,7.472620888051671,7.610994911476566,35.327287
ZnMoF5,3,top-down,P1,1,triclinic,2.1987000000000005,False,7.910034166122147,7.826421001646346,24.111095
Na2Ti2O5,3,top-down,Pca2_1,mm2,orthorhombic,2.4452999999999996,False,9.31937492,10.81057942,25.900174
MnPO4,3,top-down,P2_1/c,2/m,monoclinic,1.6749,False,5.99469051,10.646994104008597,22.722458692771976
CuHClO,4,top-down,P2_1/c,2/m,monoclinic,0.2189000000000001,False,4.892202341629271,6.16565965,23.775924
NiPO4,3,top-down,P1,1,triclinic,0.08889999999999976,False,6.431386292285385,6.4032571251724635,27.034503
CaMoAsO5,4,top-down,P1,1,triclinic,1.3381999999999998,False,6.1784533857850725,9.13288129827456,24.472178840406176
KSb2F7,3,top-down,P2_1/c,2/m,monoclinic,4.2587,False,7.51356824,8.26666561051339,28.438467
KAs2F7,3,top-down,P2_1/c,2/m,monoclinic,4.8012999999999995,False,7.35000233,8.581216264664228,26.944822
Ge(PbS2)2,3,top-down,P2_1/c,2/m,monoclinic,1.9671999999999998,False,8.18136634,10.923363728381396,28.0376168305753
BaY3Cl11,3,top-down,Pmma,mmm,orthorhombic,4.0264,False,5.27050859,10.20061087,61.77525091
Na2UI6,3,top-down,P3m1,3m,trigonal,0.039000000000000146,False,12.37323161,12.373231727731493,28.731545
BaCO3,3,top-down,P2/m,2/m,monoclinic,2.0157999999999996,True,6.24677813,6.192779700737505,22.274106
CuSeO3,3,top-down,P-1,-1,triclinic,0.0,False,4.703877874162941,10.58991611092542,27.247586
Rb2U3(IO5)4,4,top-down,P-1,-1,triclinic,1.8146,False,7.0659316910713095,7.875828657635965,30.747025
BiOF,3,top-down,P2_1/c,2/m,monoclinic,3.2822,True,7.54617922,10.25726137,28.716053
Mn3(SeO3)4,3,top-down,P-1,-1,triclinic,0.9491,False,8.270089483686187,10.127002132920113,26.200949
ZnWF5,3,top-down,P2/c,2/m,monoclinic,0.0,False,7.67768638552399,7.801295772014362,21.481084
LiSb(PO3)4,4,top-down,P2/c,2/m,monoclinic,2.8648000000000007,False,7.327424439494836,9.900911554635243,28.62984969
Li2NbP4O13,4,top-down,P-1,-1,triclinic,0.26239999999999986,False,5.150827513717799,8.023432079765334,32.879108
YBi3F15,3,top-down,P2_1/m,2/m,monoclinic,1.1719,False,10.952528751304216,11.26898165,28.797671
LiSn4(PO4)3,4,top-down,P-1,-1,triclinic,3.1972,False,9.506995233916733,11.04237539156577,25.189962
ZnFe4O9,3,top-down,P-1,-1,triclinic,0.0,False,8.507891422347127,8.468531527903707,23.806868
RbBiF4,3,top-down,P1,1,triclinic,0.0,False,3.940831447387822,4.3648441509505975,60.338868
Cu2WO4,3,top-down,P-1,-1,triclinic,0.7605000000000004,False,7.459038826324713,8.139376750274158,26.72657
RbReCl4,3,top-down,Pmma,mmm,orthorhombic,1.1604,True,11.21892532,15.21868576,23.93883041
Sn4SI6,3,top-down,P2_1/m,2/m,monoclinic,1.7064,False,4.43124642,26.520081033986994,25.396515182893765
LiVF6,3,top-down,P2_1/c,2/m,monoclinic,3.4307000000000007,False,10.53838137718411,10.29540546,25.231430731142492
BiAuCl6,3,top-down,P-1,-1,triclinic,1.0021000000000004,False,10.075812897030467,14.169623082774736,31.017331269567386
B2S3,2,top-down,P-1,-1,triclinic,2.6824000000000003,False,10.827472404225109,17.451757247321833,38.83635664899006
As2WO7,3,top-down,P2_1/c,2/m,monoclinic,3.2723999999999998,False,8.12487801,9.923704197738115,26.99574921877575
CrO2,2,top-down,Cm,m,monoclinic,0.1976,False,5.997101010390296,5.983275638257677,34.022254
Sb3O2F5,3,top-down,P2/c,2/m,monoclinic,3.8486000000000002,False,8.103164081208055,12.686162026377163,26.5164651
Cu2WO4,3,top-down,P-1,-1,triclinic,0.9017999999999997,True,7.435920420010783,8.336251089586709,25.73684437939847
Y(CuO2)3,3,top-down,P1,1,triclinic,0.0,False,3.6307666812516226,8.858466924176804,24.58076901765833
Cu3OF5,3,top-down,P-1,-1,triclinic,0.0,False,5.257705236966507,5.525380370442679,27.26745898303835
As,1,bottom-up,P4/mmm,4/mmm,tetragonal,0.0,False,2.59339635,2.59339635,20.0
Al,1,bottom-up,P4/mmm,4/mmm,tetragonal,0.0,False,2.6676028,2.6676028,20.0
P,1,bottom-up,P4/mmm,4/mmm,tetragonal,0.0,False,2.30734031,2.30734031,20.0
Al,1,bottom-up,Pmma,mmm,orthorhombic,0.0,False,2.68861205,2.76760895,22.343883
Si,1,bottom-up,P-3m1,-3m,trigonal,0.000300000000000189,True,3.87590945,3.8754562732976274,20.688228
In,1,bottom-up,P4/mmm,4/mmm,tetragonal,0.0,False,3.02064307,3.02064307,20.0
N2,1,bottom-up,Pmma,mmm,orthorhombic,2.9697000000000005,False,3.5576150082307954,6.769192722445418,20.0
Ga,1,bottom-up,P6/mmm,6/mmm,hexagonal,0.0,False,2.7683879300001273,2.768383795101021,20.0
Cl2,1,bottom-up,P4/mmm,4/mmm,tetragonal,0.0,False,2.631035129580361,2.6310351858923138,20.0
S,1,bottom-up,Pmma,mmm,orthorhombic,0.0,False,3.1880803213506326,3.6331258278911,21.025149
Bi,1,bottom-up,P4/mmm,4/mmm,tetragonal,0.0,False,3.11127439,3.11127439,20.0
Sn,1,bottom-up,P-3m1,-3m,trigonal,0.0007999999999999119,True,4.65887029,4.65785296632106,20.688228
Se,1,bottom-up,P4/mmm,mmm,tetragonal,0.0,False,2.65401704,5.28376768,19.985261
Pb,1,bottom-up,P-3m1,-3m,trigonal,0.0,False,4.8907097,4.922400851244992,20.688228
Tl,1,bottom-up,P4/mmm,4/mmm,tetragonal,0.0,False,3.13594196,3.13594196,20.0
B,1,bottom-up,P4/mmm,4/mmm,tetragonal,0.0,False,1.75633274,1.75633274,20.0
N2,1,bottom-up,P-3m1,-3m,trigonal,3.811,False,2.2935704900852927,2.2934651916384037,21.522725
Cl2,1,bottom-up,Pbam,mmm,orthorhombic,2.3431,False,4.05599846,8.09905766,19.861582
Si,1,bottom-up,P4/mmm,4/mmm,tetragonal,0.0,False,2.4250456180326045,2.4250456539148453,20.0
In,1,bottom-up,Pmma,mmm,orthorhombic,0.0,False,3.00759205,3.12815643,22.343883
Sn,1,bottom-up,P-3m1,-3m,trigonal,0.0,False,3.3716981300000004,3.37169876931891,22.485215
Tl,1,bottom-up,Pmma,mmm,orthorhombic,0.0,False,3.15024344,3.23420886,22.343883
Pd,1,bottom-up,P-3m1,2/m,trigonal,0.0,False,2.696529229786,4.663903130925597,22.024152
N2,1,bottom-up,P4/mmm,4/mmm,tetragonal,3.3066999999999993,True,3.79007163,3.79007163,20.0
Mg,1,bottom-up,Cmmm,mmm,orthorhombic,0.0,False,5.421932495445434,5.421932422968632,20.0
Ge,1,bottom-up,P4/mmm,4/mmm,tetragonal,0.0,False,2.576611458021618,2.576611510447777,20.0
As,1,bottom-up,Pm,m,monoclinic,1.2465,False,6.016478965991644,6.889275057995347,23.456171
S,1,bottom-up,P2/m,2/m,monoclinic,0.0,False,3.0840543254479686,3.862831799031381,21.823423
N2,1,bottom-up,Pmna,mmm,orthorhombic,0.0,False,2.16223747,4.97348112,22.120631
P,1,bottom-up,P2_1/m,2/m,monoclinic,0.10780000000000012,False,3.46889832,4.18061746,23.344567
Sb,1,bottom-up,Pbam,mmm,orthorhombic,0.0,False,5.89614832,7.6492124,24.520602
Ba,1,bottom-up,P4/mmm,4/mmm,tetragonal,0.0,False,5.930819689091977,5.9308194291754575,20.0
Sb,1,bottom-up,Pm,m,monoclinic,0.9075,False,6.646953477559328,7.708243852769326,23.456171
Si,1,bottom-up,Cmmm,mmm,orthorhombic,0.0,False,6.698897047098926,6.698897223567678,22.476621
As,1,bottom-up,Pbam,mmm,orthorhombic,0.0,False,4.75465312,7.46366431,24.520602
Bi,1,bottom-up,Pm,m,monoclinic,0.7056,False,6.646649148434283,8.083225944868477,23.456171
Al,1,bottom-up,P6/mmm,6/mmm,hexagonal,0.0,False,2.706965272440224,2.70705611099709,20.0
B,1,bottom-up,Pmma,mmm,orthorhombic,0.0,False,3.70526996,1.603298,22.343883
Si,1,bottom-up,P-3m1,-3m,trigonal,0.0,False,2.78170132,2.7817021523710865,22.485215
Sn,1,bottom-up,P4/mmm,4/mmm,tetragonal,0.0,False,2.975029560046946,2.9750296466478527,20.0
Pb,1,bottom-up,P4/mmm,4/mmm,tetragonal,0.0,False,3.123298281635341,3.123298560224836,20.0
S,1,bottom-up,P4/mmm,mmm,tetragonal,0.0,False,2.37201393,4.76498843,19.985261
Ge,1,bottom-up,P-3m1,-3m,trigonal,0.0,False,3.03077379,3.030774215953917,22.485215
P,1,bottom-up,P4/nmm,4/mmm,tetragonal,0.0,False,3.59123592,3.59012997,23.788442
In,1,bottom-up,P6/mmm,6/mmm,hexagonal,0.0,False,3.1993011800000404,3.1992984455858644,20.0
F2,1,bottom-up,P4/mmm,4/mmm,tetragonal,0.0,False,1.9779105607491545,1.9779105833670747,20.0
Pt,1,bottom-up,P-3m1,2/m,trigonal,0.0,False,2.693756730230343,4.6658434760559535,22.024152
Si,1,bottom-up,Pmmm,mmm,orthorhombic,0.0,False,4.5521029091477505,4.5521030340525614,22.532188
F2,1,bottom-up,Pbam,mmm,orthorhombic,2.8545,False,3.5851717,6.2011204,19.861582
N2,1,bottom-up,Pmna,mmm,orthorhombic,0.0,False,2.17794719,3.2717692,22.423865
Be,1,bottom-up,P4/mmm,4/mmm,tetragonal,0.0,False,2.8020331002592553,2.8020332115184603,20.0
N2,1,bottom-up,Pm,m,monoclinic,1.9918999999999998,False,3.9422049213619106,6.574889301766121,23.456171
Si,1,bottom-up,P6/mmm,6/mmm,hexagonal,0.00010000000000021103,True,3.916020380645271,3.915983683236087,23.996075
Tl,1,bottom-up,P6/mmm,6/mmm,hexagonal,0.0,False,3.2922091839946357,3.292039317369017,20.0
P,1,bottom-up,Pbam,mmm,orthorhombic,0.0,False,4.365181794130643,7.433717537045119,24.520602
N2,1,bottom-up,P2_1/m,2/m,monoclinic,0.0,False,2.1814432888560353,3.241969014033374,23.344567
Sn,1,bottom-up,P6/mmm,6/mmm,hexagonal,0.0,False,4.782450265432114,4.794708123732308,19.996729
Fe3GeTe2,3,from-literature,P-6m2,-6m2,hexagonal,0.0,False,4.04538102,4.045382102765062,25.219689
Si2BN,3,from-literature,Cmmm,mmm,orthorhombic,0.022399999999999753,False,6.368559000194085,6.456246496860532,20.0
MoCl5,2,bottom-up,Pmma,mmm,orthorhombic,0.0,False,3.208479617159923,16.55939651021295,23.526092
PbSe2,2,bottom-up,P-4m2,-42m,tetragonal,0.2820999999999998,False,4.06559936,4.06559936,22.855457
SeN,2,bottom-up,P4/nmm,4/mmm,tetragonal,0.0,False,3.92011983,3.92011983,21.297207
HgO,2,bottom-up,P-6m2,-6m2,hexagonal,0.2519,False,3.76906678,3.7690664941769674,20.634921
ZnAs,2,bottom-up,Amm2,mm2,orthorhombic,0.0,False,4.207552006409949,4.207552084736565,20.274504
TbAs2,2,bottom-up,C222,222,orthorhombic,0.0,False,3.16659607,3.361181229693534,24.923409
Al2Te3,2,bottom-up,P-3m1,-3m,trigonal,0.0,False,4.02659155,4.026591699311552,26.980377
GaNi2,2,bottom-up,P-6m2,-6m2,hexagonal,0.0,False,2.679351510363749,2.6793519670445005,22.780419
ScSn5,2,bottom-up,Pmmm,mmm,orthorhombic,0.0,False,3.27020544,6.14401591,23.460598
ZnTe,2,bottom-up,P3m1,3m,trigonal,1.3437999999999999,False,4.42324742,4.4232471403223155,20.16693
Al3Os2,2,bottom-up,P4/mmm,4/mmm,tetragonal,0.0,False,3.07173875,3.07173875,25.544133
CaBi,2,bottom-up,Pmm2,mm2,orthorhombic,0.0,False,3.59161976,5.89820206,27.11141
SrBi,2,bottom-up,Pmm2,mm2,orthorhombic,0.0,False,3.76096679,6.20788596,27.11141
ZnS,2,bottom-up,P3m1,3m,trigonal,2.5839,True,3.88045992,3.8804597302648074,20.16693
DyAs2,2,bottom-up,C222,222,orthorhombic,0.0,False,3.1538671100000006,3.343122850621641,24.915313
TbSn2,2,bottom-up,P4/mmm,4/mmm,tetragonal,0.0,False,3.78315751,3.78315751,22.621078
Ni2B,2,bottom-up,P-6m2,-6m2,hexagonal,0.0,False,2.524400341426721,2.5244007319736945,22.780419
YAs2,2,bottom-up,C222,222,orthorhombic,0.0,False,3.20812665,3.4956794651265617,24.904261
Tl2Se3,2,bottom-up,P-3m1,-3m,trigonal,0.0,False,4.10852609,4.108526255298046,26.980377
TbP2,2,bottom-up,C222,222,orthorhombic,0.0,False,3.12638862,3.4922617028748935,24.923409
CuN2,2,bottom-up,Pmmm,mmm,orthorhombic,0.0,False,2.82016105,4.68474265,20.816747
In3Os2,2,bottom-up,P4/mmm,4/mmm,tetragonal,0.0,False,3.26589022,3.26589022,25.544133
Sr2Si,2,bottom-up,P4/nmm,4/mmm,tetragonal,0.01330000000000009,True,8.567168208641485,8.570928978119964,28.824571
BaU,2,bottom-up,P3m1,3m,trigonal,0.0,False,3.33068613,3.3306864473989823,23.108247
RhC2,2,bottom-up,C2/m,2/m,monoclinic,0.0,False,2.786437,3.6435462145909443,24.321311
Sr3Ge,2,bottom-up,P4mm,4mm,tetragonal,0.12640000000000007,False,5.08012333,5.07307946,22.353476
GeO,2,bottom-up,C2/m,2/m,monoclinic,2.7224,False,3.2965027599362964,3.2965033987313657,22.789061
BiTe,2,bottom-up,P2_1/m,2/m,monoclinic,0.0,False,4.607542707441501,4.916592904318608,22.849215
TiTe3,2,bottom-up,P2_1/m,2/m,monoclinic,0.0,False,3.75556613,5.95449649,26.856246
Ga3Ru2,2,bottom-up,P4/mmm,4/mmm,tetragonal,0.0,False,3.0809275,3.0809275,25.544133
HoS3,2,bottom-up,P4/nmm,4/mmm,tetragonal,0.0,False,3.67817337,3.67817337,29.088529
YbI3,2,bottom-up,Pmmn,mmm,orthorhombic,0.0,False,4.2312222,9.52399742,23.788895
NdPb5,2,bottom-up,Pmmm,mmm,orthorhombic,0.0,False,4.38503234,7.04708323,23.414028
Ga2Se3,2,bottom-up,P-3m1,-3m,trigonal,0.0,False,3.74879584,3.7487952935021096,26.456756
KC12,2,bottom-up,P6/mmm,6/mmm,hexagonal,0.0,False,4.2923148,4.292315401941104,23.785746
YP2,2,bottom-up,C222,222,orthorhombic,0.0,False,3.14269614,3.477225890151066,24.904261
NaC12,2,bottom-up,P6/mmm,6/mmm,hexagonal,0.0,False,4.30140853,4.301409142066322,23.785746
SnS2,2,bottom-up,P-4m2,-42m,tetragonal,1.4874,False,3.75894804,3.75894804,22.855457
TiSe3,2,bottom-up,Pmmn,mmm,orthorhombic,0.03689999999999993,True,3.56203249,5.35048635,26.856246
AlNi2,2,bottom-up,P-6m2,-6m2,hexagonal,0.0,False,2.6481742208057457,2.6481746731775893,22.780419
In2S3,2,bottom-up,P-3m1,-3m,trigonal,1.2342000000000002,False,3.83196709,3.8319664980550425,26.456756
KC2,2,bottom-up,P4/nmm,4/mmm,tetragonal,0.3969000000000005,True,4.28817222,4.28817222,24.906801
Sr3Sn,2,bottom-up,P4mm,4mm,tetragonal,0.17110000000000003,False,5.22036316,5.22124759,22.353476
SrBi2,2,bottom-up,C2/m,2/m,monoclinic,0.0,False,3.5771827400000005,7.549623013932999,24.980012
TlPt2,2,bottom-up,P-6m2,-6m2,hexagonal,0.0,False,2.8623803032765336,2.862380667541966,22.780419
CaBi2,2,bottom-up,C2/m,2/m,monoclinic,0.0,False,3.48495202,7.045529717000804,24.980012
Mg3Sn,2,bottom-up,P4mm,4mm,tetragonal,0.0,False,4.28033775,4.26903229,22.353476
CeBe2,2,bottom-up,Pmma,mmm,orthorhombic,0.0,False,2.7618778,4.15308613,27.931777
TmBi2,2,bottom-up,C222,222,orthorhombic,0.0,False,3.42883493,3.5402495001271563,24.898708
TmS3,2,bottom-up,Pmma,mmm,orthorhombic,0.0,False,3.56022429,3.58281649,30.381957
BaSr,2,bottom-up,P3m1,3m,trigonal,0.0,False,4.28952519,4.289525607770642,34.509042
CaN2,2,bottom-up,Cm,m,monoclinic,0.07830000000000004,False,4.642307083031765,6.032050194641219,24.980012
LiSn2,2,bottom-up,P4mm,4mm,tetragonal,0.0,False,2.96179817,2.96179817,24.320905
ScP2,2,bottom-up,C222,222,orthorhombic,0.0,False,2.85090851,3.224284885933281,24.904261