Formula,No. of Elements,Discovery Process,Space Group,Point Group,Crystal System,Band Gap,Is Gap Direct?,a,b,c
Sb2Te3,2,bottom-up,Pc,m,monoclinic,0.8101999999999998,False,4.5475208038397605,13.9363575837221,23.079365
VCl5,2,bottom-up,P-1,-1,triclinic,0.9813999999999998,False,5.945961271357438,6.438851558544493,31.50928467681268
ReCl2,2,bottom-up,P-3m1,-3m,trigonal,0.0,False,3.46956402,3.46956377632084,23.003991
TaS2,2,bottom-up,C2/m,2/m,monoclinic,0.0,False,3.3886526779282744,8.98570654077054,24.236642734045528
GeSb,2,bottom-up,P-1,-1,triclinic,1.2089999999999999,True,4.115909773081738,11.964563044538869,24.958725922773112
Bi2Se3,2,bottom-up,Pc,m,monoclinic,0.8679000000000001,False,4.173210977595928,13.826208303351796,22.708289
Y7Br10,2,bottom-up,P-1,-1,triclinic,0.0,False,3.9108917740871756,17.441991575040635,26.841295444189875
Y2Ge,2,bottom-up,P-3m1,-3m,trigonal,0.0,False,4.01413319,4.0141326757302975,22.46647
InSe,2,bottom-up,P-1,-1,triclinic,1.4968,False,4.046508767523916,12.38035284643926,25.597599984664132
AgBr,2,bottom-up,P-3m1,-3m,trigonal,1.8663999999999996,True,4.31690733,4.316907632523027,23.814717
Br4N,2,bottom-up,P1,1,triclinic,0.0,False,5.589879744947182,5.159550372266275,22.704169895060684
LaCl3,2,bottom-up,C2/m,2/m,monoclinic,4.069700000000001,False,7.381543758776029,7.381541992453727,23.329904492910725
GeSb,2,bottom-up,C2/m,2/m,monoclinic,1.3570000000000002,False,4.12260133,11.925996232010828,24.98289642638982
TmBe5,2,bottom-up,Cm,m,monoclinic,0.0,False,2.5227299807515338,4.2611670158995425,26.030731390558543
PO2,2,bottom-up,Pmc2_1,mm2,orthorhombic,2.7643999999999997,False,2.56383528,9.074938596999795,30.97251778161969
BeBr2,2,bottom-up,P-4m2,-42m,tetragonal,4.1914,False,3.547994,3.547994,22.656191
SF,2,bottom-up,P-1,-1,triclinic,3.3777000000000004,False,4.051477317264374,8.05529990520516,25.85103705401079
AsCl3,2,bottom-up,Pmn2_1,mm2,orthorhombic,3.7066000000000003,False,5.86438174,6.99179008,23.123083
Br3N,2,bottom-up,P2_1/c,2/m,monoclinic,1.2153999999999998,True,7.909277187351514,9.58290903,24.935006989822877
TbF3,2,bottom-up,Pmmn,mmm,orthorhombic,7.2713,True,3.43389599,6.94909968,23.980671
VSe3,2,bottom-up,P2_1/m,2/m,monoclinic,0.0,False,3.355956,15.434103125438165,27.854259182417017
Sb2O3,2,bottom-up,Pm,m,monoclinic,2.1620999999999997,False,3.49722409,5.139467985648706,22.005671241292152
Nb2S3,2,bottom-up,C2/m,2/m,monoclinic,0.06089999999999973,True,3.2600742108830514,9.955419637275375,24.975577899701623
TlS,2,bottom-up,P-1,-1,triclinic,1.1428000000000003,False,4.0502073237274105,6.063495801456196,23.407106935803938
PdS,2,bottom-up,P3m1,3m,trigonal,0.0,False,3.62156211,3.621561334252211,21.231711
SmS3,2,bottom-up,P4/nmm,4/mmm,tetragonal,0.0,False,3.756526,3.756526,29.325055
NCl3,2,bottom-up,P2_1/c,2/m,monoclinic,1.9912999999999998,False,7.473095914766117,9.26425769,24.569838068023312
RhPb3,2,bottom-up,P4/mbm,4/mmm,tetragonal,0.0,False,6.59454668,6.59454668,25.635832
As2Pt,2,bottom-up,P4/mmm,4/mmm,tetragonal,0.0,False,3.01679873,3.01679873,23.530469
SiBi2,2,bottom-up,Pmc2_1,mm2,orthorhombic,0.7862,False,4.26823155,11.58052694,26.149775
AlBr,2,bottom-up,P4mm,4mm,tetragonal,0.7581999999999995,False,3.94183976,3.94183976,22.485034
NdCl3,2,bottom-up,Pmmn,mmm,orthorhombic,3.7226999999999997,True,3.96713002,8.65605207,24.388929
S4O9,2,bottom-up,P-3,-3,trigonal,3.0287,True,9.01397879,9.013978545214577,22.777828
Bi2S3,2,bottom-up,Pmn2_1,mm2,orthorhombic,1.3075,False,4.056508490259795,12.955383517436976,23.079365
P2Se5,2,bottom-up,P2_1/c,2/m,monoclinic,0.06420000000000003,False,7.57917431,7.312126763283073,32.150075000235354
NiF2,2,bottom-up,P2_1/c,2/m,monoclinic,4.3049,False,5.514829611451616,5.37548841,26.1498716120619
PbSe,2,bottom-up,P3m1,3m,trigonal,1.9634999999999998,False,4.04868129,4.04868119061917,21.478674
TcF2,2,bottom-up,P-3m1,-3m,trigonal,0.0,False,2.85086899,2.850869344320554,22.766075
IrBr2,2,bottom-up,P-3m1,-3m,trigonal,0.0,False,3.81892211,3.8189221303120715,23.069546
HfSe5,2,bottom-up,Pmmn,mmm,orthorhombic,0.20489999999999986,True,3.714358,12.459523,25.378499
In2S5,2,bottom-up,C2/m,2/m,monoclinic,1.2792999999999997,True,3.760683,7.764536326922877,24.139638785705223
TlSe,2,bottom-up,P-1,-1,triclinic,0.8212000000000002,False,4.166628660569357,12.717109440718124,25.594192113254465
Cl2O5,2,bottom-up,P2_1,2,monoclinic,2.0688000000000004,True,5.092291,11.098088601822568,23.19086055049213
GaAs3,2,bottom-up,P-3m1,-3m,trigonal,0.6038999999999999,True,7.66936447,7.669364533987697,21.198253
ScI2,2,bottom-up,P-6m2,-6m2,hexagonal,0.08919999999999995,False,3.957697,3.9576979926328386,23.825805
TiCl2,2,bottom-up,P2_1/m,2/m,monoclinic,0.3214999999999999,False,3.23825824,5.865683581506572,24.405527416906835
Ta2S3,2,bottom-up,P2_1/m,2/m,monoclinic,0.0,False,3.32631507,9.539422217578545,23.998847782162258
SrBr2,2,bottom-up,P-4m2,-42m,tetragonal,4.6674,True,4.93242922,4.93242922,22.656191
BSe,2,bottom-up,P-3m1,-3m,trigonal,2.887,False,3.271039,3.271038861916807,24.623155
W3S4,2,bottom-up,P-3m1,-3m,trigonal,0.0,False,3.13849001,3.139592317046398,29.266938598491095
CN,2,bottom-up,C2/m,2/m,monoclinic,0.0,False,2.360251,7.845195831595411,25.27432091345348
AgS2,2,bottom-up,P-3m1,-3m,trigonal,0.0,False,3.599155,3.5994404005453404,23.00811611975498
MoI2,2,bottom-up,P-3m1,-3m,trigonal,0.0,False,3.990157,3.995094032184349,23.15247951186762
PdBr2,2,bottom-up,P2_1/c,2/m,monoclinic,1.2436999999999996,False,6.584923587845154,7.99397634,26.033875438841946
VTe3,2,bottom-up,P2_1/m,2/m,monoclinic,0.0,False,3.614784,17.052443006313027,28.440595017438472
Tl2Se5,2,bottom-up,C2/m,2/m,monoclinic,0.8677000000000001,False,4.01329534,8.191464788679161,24.05949331819034
Mg5Rh,2,bottom-up,Pmc2_1,mm2,orthorhombic,0.0,False,5.60162665,6.78868264,25.78836
SbF3,2,bottom-up,P2_1/c,2/m,monoclinic,3.8924,True,7.913141829335961,7.14475625,24.588268336826047
CoGe4,2,bottom-up,P4/nbm,4/mmm,tetragonal,0.0,False,5.9031082,5.9031082,22.924308
SnO,2,bottom-up,Pbcm,mmm,orthorhombic,2.24,True,4.499654,5.604682,22.719659
TcBr2,2,bottom-up,P-3m1,-3m,trigonal,0.0,False,3.652031,3.6520315778700487,22.766075
V2S3,2,bottom-up,P2_1/m,2/m,monoclinic,0.0,False,3.1875242579861256,8.989845284864028,24.15800861942327
ZnCl2,2,bottom-up,P-4m2,-42m,tetragonal,4.478,True,7.32207031,7.32207031,26.75385
OsCl2,2,bottom-up,P-3m1,-3m,trigonal,1.4202,True,3.64986,3.6498595840855304,23.240079
P2S3,2,bottom-up,Pc,m,monoclinic,2.3662,False,4.4389340255214425,10.761763349619802,23.079365
ZrTe2,2,bottom-up,R-3m,-3m,trigonal,0.0,False,3.9978826004767307,3.996416228215729,22.866735678863712
CSe,2,bottom-up,Pmmn,mmm,orthorhombic,0.30530000000000035,False,3.05835553,4.49915253,22.225044
V2Se3,2,bottom-up,C2/m,2/m,monoclinic,0.0924999999999998,False,3.217521229458083,9.56522074442242,24.973553409846463
SrCl2,2,bottom-up,P-3m1,-3m,trigonal,5.8943,False,4.399901,4.399900715240743,23.529845
NbSe2,2,bottom-up,C2/m,2/m,monoclinic,0.0,False,10.498082,10.506309619081335,24.48124157115488
TiSi2,2,bottom-up,P4/nmm,4/mmm,tetragonal,0.0,False,3.52651241,3.52598465,25.781726
CdF2,2,bottom-up,P31m,3m,trigonal,3.9448999999999996,True,6.106069,6.106069361491564,23.168642
PI3,2,bottom-up,P2_1/c,2/m,monoclinic,1.9425,False,8.598980699904008,10.93532774,24.542667461409657
Ga4O3,2,bottom-up,P2_1/m,2/m,monoclinic,0.6935,False,3.03392831,7.712602046343595,27.768297948433354
GeCl2,2,bottom-up,P-3m1,-3m,trigonal,2.7636000000000003,False,3.881985,3.881985072932146,23.73272
CdI2,2,bottom-up,P-4m2,-42m,tetragonal,2.5820999999999996,False,4.35678399,4.35678399,22.741369
GaCl3,2,bottom-up,C2/m,2/m,monoclinic,3.8126,False,6.057736831045571,6.059817641521927,23.22464000301846
CSe2,2,bottom-up,P-3m1,-3m,trigonal,0.0,False,3.12935704,3.1293571328147682,22.955696
AsPb,2,bottom-up,C2/m,2/m,monoclinic,0.0,False,5.72880753,8.707883056128953,24.74696981428654
TiF2,2,bottom-up,P2_1/m,2/m,monoclinic,0.5840999999999998,False,2.79636621,5.174281992106718,24.39967681355588
AgCl,2,bottom-up,P-3m1,-3m,trigonal,1.8936000000000002,True,4.21757325,4.2175740150601735,23.814717
As2S3,2,bottom-up,P2_1/m,2/m,monoclinic,0.9767000000000001,False,3.60880656,9.642664124992962,25.25268530631138
MnTe2,2,bottom-up,C2/m,-1,monoclinic,0.19219999999999993,False,7.134743548257359,7.012110699703122,23.82971606502656
Y5I8,2,bottom-up,P2/m,2/m,monoclinic,0.0,False,4.08430605,15.476206861801927,25.190389276467613
Sb9Br2,2,bottom-up,P2_1/m,2/m,monoclinic,0.0,False,4.26850763,12.753498318684976,34.948040136486156
IrI2,2,bottom-up,P-3m1,-3m,trigonal,0.0,False,3.98538925,3.9853911169495153,22.858091
AuCl,2,bottom-up,P4/nmm,4/mmm,tetragonal,0.3341000000000003,True,3.94397634,3.94397634,23.624099
Zr3S2,2,bottom-up,P4/mmm,4/mmm,tetragonal,0.0,False,3.54502262,3.54502262,26.086724
TcSe2,2,bottom-up,P-1,-1,triclinic,0.9913999999999998,False,6.659667394444447,6.78234812411109,23.874465202761964
ZrHg,2,bottom-up,P4/nmm,4/mmm,tetragonal,0.0,False,3.16441835,3.16441835,26.60755
InS,2,bottom-up,P-1,-1,triclinic,1.6663000000000001,False,3.8827428751481805,12.063582513205771,25.607590918534196
TiF,2,bottom-up,P-3m1,-3m,trigonal,0.0,False,2.97174531,2.9717447995883277,26.166721
DyF3,2,bottom-up,Pmmn,mmm,orthorhombic,7.2932,True,3.40940227,6.91039275,23.944354
GeI4,2,bottom-up,P4/mmm,4/mmm,tetragonal,0.0,False,5.75192913,5.75192913,23.993582
WF3,2,bottom-up,P-31m,-3m,trigonal,4.1269,False,5.79530884,5.795309295896984,22.87158
GeF2,2,bottom-up,P-3m1,-3m,trigonal,2.7028999999999996,False,3.56604245,3.566041462915595,23.73272
BaF2,2,bottom-up,P-3m1,-3m,trigonal,6.3026,False,4.21307693,4.213075023099739,23.529845
As2Pt,2,bottom-up,P2_1/m,2/m,monoclinic,0.0,False,3.6309100081746344,5.674371464695395,24.5104866934174
BiF3,2,bottom-up,P-3,-3,trigonal,5.0287,True,6.138143840000018,6.138143953125939,23.442852
PdSe,2,bottom-up,P-3m1,-3m,trigonal,0.0,False,3.97511566,3.9751153962594614,23.822772
PtSe2,2,bottom-up,P2_1/c,2/m,monoclinic,1.5558999999999998,False,5.700540039214677,5.895846241968406,21.127412506712954
PdCl2,2,bottom-up,P-3m1,-3m,trigonal,0.40720000000000045,False,3.67567862,3.6756788269217653,23.007692
AuS,2,bottom-up,Pmmn,mmm,orthorhombic,0.0,False,2.87470903,3.69861291,23.889425
TaCl5,2,bottom-up,P-1,-1,triclinic,2.869,False,6.328675454628442,6.7410684454989696,30.73554998619639
Sb2Pt,2,bottom-up,P2_1/m,2/m,monoclinic,0.0,False,3.8225192074443943,5.967851658823047,24.52507009368048
AsBr3,2,bottom-up,P-31m,-3m,trigonal,2.5048999999999997,False,6.66665142,6.666651404501955,23.649843
NCl3,2,bottom-up,Pmn2_1,mm2,orthorhombic,2.2398000000000002,True,4.13638883,10.40794025,23.123083
Te2C,2,bottom-up,P-3m1,-3m,trigonal,0.0,False,3.37956974,3.3795696718427872,23.541274
P2O3,2,bottom-up,P2_1,2,monoclinic,3.8505000000000003,False,4.51276874,7.767875656924241,22.246517378926708
LuSi2,2,bottom-up,P4/mmm,4/mmm,tetragonal,0.0,False,3.70610504,3.70610504,23.77951
SiF2,2,bottom-up,P-3m1,-3m,trigonal,1.8030999999999997,False,3.4985717100000002,3.498572633905635,23.73272
EuBi2,2,bottom-up,Pm,m,monoclinic,0.0047999999999999154,False,4.26550622,5.309199721884905,23.17336028885367
P2Se3,2,bottom-up,Pc,m,monoclinic,1.8210000000000002,False,4.517464148834073,11.42848706387199,22.708289
Al2Te,2,bottom-up,P-3,-3,trigonal,0.4586999999999999,True,11.93546338,11.935463088103544,23.381968
PuF3,2,bottom-up,Pmmn,mmm,orthorhombic,0.0,False,3.64636069,7.19157742,24.890906
Sc2Br3,2,bottom-up,C2/m,2/m,monoclinic,0.5471999999999999,False,3.64793601,9.48348756017412,25.499239730778665
LuGe2,2,bottom-up,P4/mmm,4/mmm,tetragonal,0.0,False,3.52267296,3.52267296,23.77951
Er6Cl7,2,bottom-up,P-1,-1,triclinic,0.0,False,3.620069310477659,9.997868069018391,29.1952690827599
Sb4Cl,2,bottom-up,P2/m,2/m,monoclinic,0.0,False,4.23171555,12.674364665232153,33.7190085428133
TlI3,2,bottom-up,C2/m,2/m,monoclinic,0.8010000000000002,False,7.410598398546532,7.407604004942947,23.221788692568342
Au2Se,2,bottom-up,P4/nmm,4/mmm,tetragonal,1.1287999999999996,True,5.79444523,5.793447278101769,22.551090119585247
OsF3,2,bottom-up,P-31m,-3m,trigonal,0.08850000000000069,False,4.778804939921081,4.77884651504035,22.681546439726297
ZnI2,2,bottom-up,P-3,-3,trigonal,1.9365,False,7.0402665,7.040265849342829,23.168642
TlSe,2,bottom-up,P-6m2,-6m2,hexagonal,0.6802999999999999,False,4.18242474,4.182423688423046,25.019273
BTe,2,bottom-up,P-1,-1,triclinic,0.6859999999999999,False,3.5858112638713986,4.402656108913459,23.4221647852498
As2O3,2,bottom-up,Pm,m,monoclinic,1.8755000000000002,False,3.3522794,4.9637584637366,22.007893565022993
AgS,2,bottom-up,Pmmn,mmm,orthorhombic,0.0,False,2.76321223,4.26095132,23.889425
Sc2Ge,2,bottom-up,P-3m1,-3m,trigonal,0.0,False,3.79354569,3.7935440487952814,22.695846
Ta2S3,2,bottom-up,P2_1/m,2/m,monoclinic,0.0,False,3.3314356383773522,9.54759936806285,24.165263947293695
ZnI2,2,bottom-up,P-4m2,-42m,tetragonal,2.646,False,4.156973384131505,4.15575731897174,22.753397196546572
YF3,2,bottom-up,Pmmn,mmm,orthorhombic,7.1079,True,3.42481171,6.94225771,24.85506
NdS3,2,bottom-up,P4/nmm,4/mmm,tetragonal,0.0,False,3.78975934,3.78991489,29.438976
MoBr2,2,bottom-up,P2_1/c,2/m,monoclinic,0.4607999999999999,False,4.23684453,6.921084824945671,21.55465793270932
P2O3,2,bottom-up,Pm,m,monoclinic,1.2858,True,3.45179941,5.731734891095868,22.19548056568292
RuF2,2,bottom-up,P-3m1,-3m,trigonal,0.9340000000000002,False,3.2521251200000005,3.252124630443946,22.810979
TaSe3,2,bottom-up,P2_1/m,2/m,monoclinic,0.0,False,5.40167859382688,6.989559972469512,26.33370808119179
Sn2Os,2,bottom-up,P4/mmm,4/mmm,tetragonal,0.0,False,3.14924059,3.14924059,22.803662
W3Se4,2,bottom-up,P-3m1,-3m,trigonal,0.0,False,3.24668744,3.2373498960685527,29.27021365793639
PtN2,2,bottom-up,P2_1/m,2/m,monoclinic,0.0,False,3.04179798079821,5.666621424696654,24.519531197948982
GaBr3,2,bottom-up,Pmc2_1,mm2,orthorhombic,3.0761000000000003,False,6.74897931,6.31473679,22.61305
AgBr,2,bottom-up,Cmme,mmm,orthorhombic,2.5154,True,4.2512537954029055,4.25125370449202,24.122461
ZrZn,2,bottom-up,P4/nmm,4/mmm,tetragonal,0.0,False,3.0735166,3.0735166,25.689944
K2O,2,bottom-up,P31m,3m,trigonal,0.4800000000000001,False,7.0824021190071775,7.081057147523779,22.643573404857428
HfI,2,bottom-up,P-3m1,-3m,trigonal,0.0,False,3.65075387,3.650752540978927,26.166721
SiBi,2,bottom-up,P-1,-1,triclinic,1.0219999999999998,False,4.172730234552526,12.012003833535399,25.22895952802864
SiTe,2,bottom-up,Aem2,mm2,orthorhombic,0.6541999999999999,False,4.231431807572067,4.231432565940032,22.83918403018169
SnTe,2,bottom-up,P3m1,3m,trigonal,1.8116,False,4.162695,4.162643131140838,22.359770001778283
BrO3,2,bottom-up,P-1,-1,triclinic,1.6538000000000004,False,7.197288908604268,7.215604950062052,22.6851788362459
LaGe3,2,bottom-up,P6/mmm,6/mmm,hexagonal,0.0,False,5.95578239,5.955782071657673,20.0
Ga2Se5,2,bottom-up,P1,1,triclinic,1.6451000000000002,False,3.8628534431719,7.76714736949274,24.090291330359083
Pr2Cl5,2,bottom-up,P2_1/m,2/m,monoclinic,0.47929999999999984,False,4.01047971,14.91761039467003,26.42676456693038
GeN,2,bottom-up,C2/m,2/m,monoclinic,1.3299999999999996,False,3.103905176494667,9.542622638965122,24.962352810737062
YBe5,2,bottom-up,P1,1,triclinic,0.0,False,2.533439511411709,4.293807858058276,25.924180128092555
WBr3,2,bottom-up,P-31m,-3m,trigonal,0.81,True,6.610885034112428,6.60918146242202,22.77168106269613
RuBr3,2,bottom-up,P-31m,-3m,trigonal,0.022499999999999964,False,6.327402,6.327402976914383,22.566854
BaI2,2,bottom-up,P-4m2,-42m,tetragonal,4.1563,True,5.530908,5.530908,22.656191
Ga2S5,2,bottom-up,C2/m,2/m,monoclinic,1.6842000000000001,False,3.58548,7.361720909424507,24.095147637401396
YGe3,2,bottom-up,P6/mmm,6/mmm,hexagonal,0.0,False,5.70835275,5.708352457153935,20.0
Tb2Sn,2,bottom-up,P-3m1,-3m,trigonal,0.0,False,3.49510312,3.495103352015927,22.71677
B2O3,2,bottom-up,Pmc2_1,mm2,orthorhombic,3.3407,False,2.4725934064413018,4.236951613229729,25.735537
TiBr2,2,bottom-up,P2_1/m,2/m,monoclinic,0.2561,False,3.42881044,6.180126978427516,24.425855915016278
ScI3,2,bottom-up,C2/m,2/m,monoclinic,1.9634999999999998,False,7.189096901396665,7.189094797907647,23.327041856652812
SnN,2,bottom-up,C2/m,2/m,monoclinic,0.29269999999999996,False,3.42920386,10.768801001425706,24.74324399184025
TcO2,2,bottom-up,P2_1/m,2/m,monoclinic,0.0,False,2.792791504578251,5.008010821821679,21.952155438144317
GeBi,2,bottom-up,P-1,-1,triclinic,0.7646000000000002,False,4.250514206718371,12.325057353963114,24.962979989140713
ZrAg,2,bottom-up,P4/nmm,4/mmm,tetragonal,0.0,False,3.09171027,3.09171027,24.42588
Sb2Se3,2,bottom-up,Pc,m,monoclinic,1.2236,False,4.351905652149572,13.000166419437122,22.708289
ScSe3,2,bottom-up,P4/nmm,4/mmm,tetragonal,0.0,False,3.84275344,3.84275298,29.216602
BCl,2,bottom-up,Pbcm,mmm,orthorhombic,2.4297,False,7.44014891,5.25789463,23.094001
CN,2,bottom-up,P-1,-1,triclinic,0.0,False,2.360219261791313,7.9936669115465255,25.45455352199999
AgCl,2,bottom-up,Cmme,mmm,orthorhombic,2.6818000000000004,True,4.236686743744351,4.236687565418076,24.122461
In2Se,2,bottom-up,P3,3,trigonal,0.8606999999999998,True,12.047459600000009,12.047459712727665,23.381968
ZnF2,2,bottom-up,P-3m1,-3m,trigonal,4.6651,True,3.157813,3.157812508897892,23.451494
FeB2,2,bottom-up,P4/mmm,4/mmm,tetragonal,0.0,False,2.52952404,2.52952404,22.704718
NbSe2,2,bottom-up,C2/m,2/m,monoclinic,0.0,False,3.5081553099157397,9.277426704348464,23.708919934912114
MoI2,2,bottom-up,P4/mbm,4/mmm,tetragonal,1.3841999999999999,True,12.68491243,12.68795463,28.921682
Bi2C,2,bottom-up,Pmc2_1,mm2,orthorhombic,0.0,False,3.86405443,10.56670844,25.607718
Au2S,2,bottom-up,Pmc2_1,mm2,orthorhombic,1.0821,True,4.623246048548141,7.049726,23.357037000468896
SnN2,2,bottom-up,Pmc2_1,mm2,orthorhombic,0.2645000000000004,False,3.240258,8.555633,25.607718
Nb2S,2,bottom-up,P4/nmm,4/mmm,tetragonal,0.0,False,3.35588782,3.35588782,27.221538
ScS3,2,bottom-up,P4/nmm,4/mmm,tetragonal,0.0,False,3.56277288,3.56277261,29.216602
WO3,2,bottom-up,Pmm2,mm2,orthorhombic,1.3941,False,3.711567,3.8018783095498994,22.234055474112903
BaBr2,2,bottom-up,P-3m1,-3m,trigonal,4.9739,False,4.90897,4.9089693709055675,23.529845
ReTe2,2,bottom-up,P-3m1,-3m,trigonal,0.0,False,3.72691,3.726910227229253,22.641327
GaCl3,2,bottom-up,Pmc2_1,mm2,orthorhombic,3.2553000000000005,True,6.56468046,6.11351869,22.61305
B2Se5,2,bottom-up,C2/m,2/m,monoclinic,1.0977000000000001,True,3.44229542,7.3071767895767366,24.144616537397066
NCl3,2,bottom-up,C2/m,2/m,monoclinic,1.0777,False,5.490119272834243,5.4901182395646995,23.53537029896547
SbO2,2,bottom-up,Pmc2_1,mm2,orthorhombic,1.9031000000000002,False,3.20776309,9.910038678433787,30.97253760019388
Sb9Cl2,2,bottom-up,P2_1/m,2/m,monoclinic,0.0,False,4.24769796,12.675027075446403,34.944938365599626
CoSi4,2,bottom-up,P4/nbm,4/mmm,tetragonal,0.0,False,5.623666,5.623666,22.924308
EuAs2,2,bottom-up,Pm,m,monoclinic,0.0,False,3.76739299,4.923332420058375,23.17227102664318
WS2,2,bottom-up,P2_1/m,2/m,monoclinic,0.021700000000000053,True,3.21280435,5.727421483601035,24.146613074435987
Si3Rh,2,bottom-up,P4/mbm,4/mmm,tetragonal,0.0,False,5.30538736,5.30538736,25.635832
PbN3,2,bottom-up,P-3m1,-3m,trigonal,1.2305,False,5.54749895,5.547499737170129,21.405434
CaBr2,2,bottom-up,P-3m1,-3m,trigonal,4.8702000000000005,False,4.23095604,4.230955639086354,22.742717
RuBr2,2,bottom-up,P-3m1,-3m,trigonal,1.1752,True,3.758969,3.758968190514519,23.240079
SBr,2,bottom-up,P-1,-1,triclinic,1.7830999999999997,True,7.695494945899517,9.138154749685519,25.174839053770555
P2Pd,2,bottom-up,P-3,-3,trigonal,0.0,False,6.83566208,6.835662700803078,22.860006
BF,2,bottom-up,P1,1,triclinic,0.06440000000000001,False,2.9739047791611375,2.1216936862316134,23.682696986879463
P2Pt,2,bottom-up,P4/mmm,4/mmm,tetragonal,0.0,False,2.89803472,2.89803472,23.530469
PtN2,2,bottom-up,Pmmm,mmm,orthorhombic,0.0,False,3.747071372757732,3.182459874909577,23.396581362998003
Bi2S3,2,bottom-up,P-3m1,-3m,trigonal,1.1042999999999998,False,4.03866024,4.038660928408673,25.294263
ZrI2,2,bottom-up,P-3m1,-3m,trigonal,0.0,False,3.77756371,3.7775635961300034,22.995423
IrPb3,2,bottom-up,P4/mbm,4/mmm,tetragonal,0.0,False,6.62745909,6.62745909,25.635832