Formula,No. of Elements,Discovery Process,Space Group,Point Group,Crystal System,Band Gap,Is Gap Direct?,a,b,c
BeSn2,2,bottom-up,C2/m,2/m,monoclinic,0.0,False,3.68928467,6.379634026705339,23.148083
AgP2,2,bottom-up,P2/m,2/m,monoclinic,0.0,False,2.41052425,6.68204076,20.816747
YBi2,2,bottom-up,C222,222,orthorhombic,0.0,False,3.46533646,3.5738741986852505,24.904261
RhO2,2,bottom-up,Pmmm,mmm,orthorhombic,0.0,False,3.00354059,2.79606177,22.400849
HgAs,2,bottom-up,P-6m2,-6m2,hexagonal,0.0,False,4.506653308996879,4.506653426399395,20.274504
TaTe2,2,bottom-up,P-3m1,-3m,trigonal,0.0,False,3.692894808007367,3.6928950345304066,23.682192
SrCe,2,bottom-up,Pmmn,mmm,orthorhombic,0.0,False,3.56285529,4.14782878,25.269087
CrH4,2,bottom-up,P4/nmm,4/mmm,tetragonal,0.09549999999999992,False,2.81853673,2.81853673,25.376457
Na2I,2,bottom-up,Pmma,mmm,orthorhombic,0.0,False,4.55699068,7.49739397,23.993148
GaPt2,2,bottom-up,P-6m2,-6m2,hexagonal,0.0,False,2.915931776806738,2.9159323642419546,22.780419
BaP2,2,bottom-up,C2/m,2/m,monoclinic,0.30600000000000005,False,4.75583458,7.851155906326096,24.980012
SrSb2,2,bottom-up,C2/m,2/m,monoclinic,0.0,False,3.50059,7.5530736434017385,24.980012
Sr3Pb,2,bottom-up,P4mm,4mm,tetragonal,0.1694,False,5.27307853,5.2763644,22.353476
KSb3,2,bottom-up,P-6m2,-6m2,hexagonal,0.0,False,5.5151425,5.515143712010201,22.300729
AsSe,2,bottom-up,P2_1/c,2/m,monoclinic,1.0057999999999998,True,6.83472657,7.05186257,22.0755
Be3Si,2,bottom-up,P4mm,4mm,tetragonal,0.0,False,3.25761061,3.25714115,22.353476
NiSb2,2,bottom-up,P31m,3m,trigonal,0.0,False,6.19228313,6.192265850522703,23.849595
BaC2,2,bottom-up,Cmme,mmm,orthorhombic,0.0,False,4.68347611,4.902376267249013,23.148083
SrAs2,2,bottom-up,C2/m,2/m,monoclinic,0.0,False,3.34230432,7.326038753498243,24.980012
PaN2,2,bottom-up,P4/mmm,4/mmm,tetragonal,0.0,False,4.63894283,4.63894283,22.513147
P2C,2,bottom-up,P-42_1m,-42m,tetragonal,1.8462,False,4.08734774,4.08734774,21.526957
LiN3,2,bottom-up,P2/m,2/m,monoclinic,1.2487,False,3.9331109518475063,6.564211163013804,20.0
GeSe2,2,bottom-up,P-4m2,-42m,tetragonal,0.6056999999999997,False,3.69691895,3.69691895,22.855457
SrMg,2,bottom-up,P-3m1,-3m,trigonal,0.06910000000000005,False,4.00242814,4.002427710397974,28.784137
YS3,2,bottom-up,P4mm,4mm,tetragonal,0.0,False,3.58961594,3.58979305,24.44792
P2Pt,2,bottom-up,P31m,3m,trigonal,0.0049000000000001265,True,6.155734250000001,6.153009142433547,23.849595
SrN,2,bottom-up,Pmm2,mm2,orthorhombic,0.0,False,3.62773963,3.72987406,27.11141
Be3Sn,2,bottom-up,Pmm2,mm2,orthorhombic,0.0,False,3.42194912,2.78768373,22.353476
TeC,2,bottom-up,Pmma,mmm,orthorhombic,0.0,False,2.69284915,6.31846157,24.071701
ZnP,2,bottom-up,P-6m2,-6m2,hexagonal,0.0,False,3.9928499560481012,3.9928500114607193,20.274504
ThRh5,2,bottom-up,P6/mmm,6/mmm,hexagonal,0.0,False,7.742557290000001,7.771358376242873,20.0
SiO,2,bottom-up,C2/m,2/m,monoclinic,2.1197,False,3.3988157113343105,3.3988163712520723,22.789061
SbTe,2,bottom-up,P-1,-1,triclinic,0.0,False,4.571176356795473,4.899147085277532,22.849215
SrSb,2,bottom-up,Pmm2,mm2,orthorhombic,0.0,False,3.7075121,6.10784799,27.11141
Be3Pb,2,bottom-up,Pmm2,mm2,orthorhombic,0.0,False,3.45121139,2.87524061,22.353476
CSe,2,bottom-up,Pmma,mmm,orthorhombic,0.0,False,2.54704086,6.98602066,24.071701
TbSn5,2,bottom-up,Pmmm,mmm,orthorhombic,0.0,False,4.1293085,6.69598742,23.326436
CaSb,2,bottom-up,Pmm2,mm2,orthorhombic,0.0,False,3.4850394,5.77251181,27.11141
BaSi2,2,bottom-up,C2/m,2/m,monoclinic,0.02389999999999981,True,6.69585564,5.530697033545712,23.148083
BaGe2,2,bottom-up,C2/m,2/m,monoclinic,0.22940000000000005,False,6.69490095,5.559745156421906,23.148083
ErP2,2,bottom-up,C222,222,orthorhombic,0.0,False,3.1025341800000006,3.4202588872577175,24.897091
Ba3C,2,bottom-up,P4mm,4mm,tetragonal,0.0,False,4.76877638,4.78346136,22.353476
RbF,2,bottom-up,P4/mmm,4/mmm,tetragonal,4.6163,False,3.86692891,3.86692891,20.0
TeP,2,bottom-up,P2_1/c,2/m,monoclinic,1.6229999999999998,True,7.10837155,6.89110954,22.0755
TeRu,2,bottom-up,Cmme,mmm,orthorhombic,0.0,False,3.5140431876369402,3.5140433861794085,23.66238
NdSi5,2,bottom-up,Pmmm,mmm,orthorhombic,0.0,False,3.46917702,6.53005432,23.414028
MnAs2,2,bottom-up,P-6m2,-6m2,hexagonal,0.0,False,3.1057887539779845,3.1057888000796168,26.361247
EuTe,2,bottom-up,P4/mmm,4/mmm,tetragonal,0.0,False,4.557148074730731,4.5571482011361315,25.905649
ScTe3,2,bottom-up,P4mm,4mm,tetragonal,0.0,False,4.17210863,4.16843171,24.44792
CoC2,2,bottom-up,C2/m,2/m,monoclinic,0.0,False,2.53913114,3.450235748231115,24.321311
Sn2O,2,bottom-up,Cm,m,monoclinic,0.0,False,3.3128986000000014,3.3853076592532974,22.806944
MnSb2,2,bottom-up,Cm,m,monoclinic,0.0,False,3.2176511339399836,3.2176510544716566,26.361247
Ba3Sn,2,bottom-up,P4mm,4mm,tetragonal,0.19500000000000006,False,5.3053501,5.30227559,22.353476
TbC2,2,bottom-up,P4/mmm,4/mmm,tetragonal,0.0,False,3.51205904,3.51205904,22.621078
TbPb2,2,bottom-up,P4/mmm,4/mmm,tetragonal,0.0,False,3.82059879,3.82059879,22.621078
Fe2B3,2,bottom-up,P4/mmm,4/mmm,tetragonal,0.0,False,2.56049524,2.56049524,25.544133
YbI3,2,bottom-up,C2/m,2/m,monoclinic,0.18799999999999972,False,7.2838751,7.705648036140041,22.454131
NaC2,2,bottom-up,P4mm,4mm,tetragonal,0.0,False,4.41243171,4.41243171,24.320905
RuS,2,bottom-up,Cmme,mmm,orthorhombic,0.0,False,3.7544575882754234,3.7544578264850497,23.66238
SnSe,2,bottom-up,Pmna,mmm,orthorhombic,0.08709999999999996,False,4.87708897,7.80336577,24.071701
Sr2Ce,2,bottom-up,C2/m,2/m,monoclinic,0.0,False,4.16140708,7.137825528104722,26.048837
BaBe,2,bottom-up,P3m1,3m,trigonal,0.0,False,4.16222546,4.162225863014999,34.509042
Sr2Ce,2,bottom-up,P-6m2,-6m2,hexagonal,0.0,False,3.945886670000003,3.9458861951173203,25.882754
SrMg,2,bottom-up,P3m1,3m,trigonal,0.0,False,4.00127088,4.001271304782943,34.509042
CaAs,2,bottom-up,Pmm2,mm2,orthorhombic,0.0,False,3.31157082,4.46658632,27.11141
PtI2,2,bottom-up,Pmna,mmm,orthorhombic,0.9291,False,4.286196,7.32386632,22.605336
BaSb2,2,bottom-up,C2/m,2/m,monoclinic,0.0,False,3.5351155300000006,8.254873746681534,24.980012
BeSb,2,bottom-up,Pmm2,mm2,orthorhombic,0.0,False,3.33441845,3.36679258,27.11141
Sr3Si,2,bottom-up,P4mm,4mm,tetragonal,0.14239999999999997,False,5.0406008,5.03622957,22.353476
Ca3Sn,2,bottom-up,P4mm,4mm,tetragonal,0.32489999999999997,False,4.93091607,4.93082074,22.353476
KBi3,2,bottom-up,P-6m2,-6m2,hexagonal,0.0,False,5.61082905,5.610830291466117,22.300729
LiC2,2,bottom-up,P4mm,4mm,tetragonal,0.0,False,4.27817577,4.27817577,24.320905
ScSe3,2,bottom-up,P4mm,4mm,tetragonal,0.0,False,3.73595128,3.73666,24.44792
NaN3,2,bottom-up,P-6m2,-6m2,hexagonal,0.6476999999999999,False,4.56492479,4.564925337854528,22.300729
Ba5Ce,2,bottom-up,Cm,m,monoclinic,0.0,False,4.15735731,8.039180004070815,25.53339
PbS,2,bottom-up,Pmna,mmm,orthorhombic,0.16029999999999944,False,5.73751365,7.63923878,24.071701
Ga2S3,2,bottom-up,P-3m1,-3m,trigonal,0.5559999999999996,False,3.56247847,3.562478021102781,26.456756
Sr5Ce,2,bottom-up,Cm,m,monoclinic,0.0,False,4.06277857,7.916606743339756,25.53339
CaGe2,2,bottom-up,C2/m,2/m,monoclinic,0.0,False,5.88677912,5.0002084071905575,23.148083
Ca2Sn,2,bottom-up,P-1,-1,triclinic,0.0,False,6.411529257307975,6.410249070976663,28.824571
As2Pd,2,bottom-up,P31m,3m,trigonal,0.09580000000000011,False,6.15240194,6.154050811736765,23.849595
Be2Ge,2,bottom-up,Pmmn,mmm,orthorhombic,0.0,False,4.205528901677698,4.211168763488488,28.824571
Te2C,2,bottom-up,P-4m2,-42m,tetragonal,0.0,False,3.27858708,3.27858708,22.855457
AgN2,2,bottom-up,P2/m,2/m,monoclinic,0.0,False,2.83678102,6.27355981,20.816747
UC2,2,bottom-up,P-1,-1,triclinic,0.0,False,2.6679615292183643,3.996501333788533,26.177714
RbCl,2,bottom-up,P4/mmm,4/mmm,tetragonal,4.6021,True,4.53314939,4.53314939,20.0
Sr2Ge,2,bottom-up,P4/nmm,4/mmm,tetragonal,0.006200000000000205,True,8.524221113265378,8.522621033528281,28.824571
YGe5,2,bottom-up,Pmmm,mmm,orthorhombic,0.0,False,3.47366905,6.33810598,23.460598
USi2,2,bottom-up,C2/m,2/m,monoclinic,0.0,False,3.612829599851167,5.362881658772088,26.177714
HgS,2,bottom-up,P3m1,3m,trigonal,0.024799999999999933,True,4.2852672,4.285266942613606,20.16693
BiTe,2,bottom-up,P2_1/c,2/m,monoclinic,0.1990000000000003,True,8.29049051,7.51817919,22.0755
PtS,2,bottom-up,P-3m1,-3m,trigonal,0.0,False,3.51926099,3.5192609702768562,23.678874
PtSe,2,bottom-up,P-3m1,-3m,trigonal,0.0,False,3.68430329,3.684302945951203,23.678874
PtS,2,bottom-up,P-3m1,-3m,trigonal,0.0,False,3.64018482,3.6401846112206946,23.10591604
PtSe,2,bottom-up,P-3m1,-3m,trigonal,0.0,False,3.78667673,3.7866764989498463,23.44590518