Formula,No. of Elements,Discovery Process,Space Group,Point Group,Crystal System,Band Gap,Is Gap Direct?,a,b,c
CoH6(SeO4)2,4,top-down,P2_1/c,2/m,monoclinic,2.9574,False,6.95521867,8.427718464945974,26.39896938812915
Zn(InS2)2,3,top-down,P3m1,3m,trigonal,0.0,False,3.91260306,3.912602819429977,29.548034
GeAs,2,top-down,C2/m,2/m,monoclinic,1.6503999999999999,False,3.80908423,11.243027765827236,25.248538856796294
SiH2O,3,top-down,Cm,m,monoclinic,0.0,False,3.074730348637976,3.074729729889244,22.389247
CuTeO4,3,top-down,P2/m,2/m,monoclinic,0.0,False,2.9977218801837924,6.075666387425245,22.48401828830595
CdTeMoO6,4,top-down,P-42_1m,-42m,tetragonal,3.2344,False,5.32131661,5.32131661,27.70161174
U(HO2)2,3,top-down,P2_1/c,2/m,monoclinic,1.9681000000000002,True,5.42803749,5.84781864,25.477736
AgI2,2,top-down,P-4m2,-42m,tetragonal,0.0,False,3.854568005966027,3.8545680268462097,23.530221
In3Te4,2,top-down,P-3m1,-3m,trigonal,0.0,False,4.32067848,4.320678414818828,30.6484434
CoPS3,3,top-down,P-31m,-3m,trigonal,0.0,False,5.774409131416203,5.7744085466316175,22.872046
MnNb2Zn2O8,4,top-down,P2/c,2/m,monoclinic,2.4534,False,5.343852524129599,6.06946508,27.027930916956244
Rb2Hg2PdCl8,4,top-down,C2/m,2/m,monoclinic,1.5560999999999998,True,6.6255316035898,6.625531768541942,28.899836708744097
CuH2(CO2)2,4,top-down,P2_1/c,2/m,monoclinic,0.0,False,7.96688294,8.10632877,21.10791
MgSnO2,3,top-down,P1,1,triclinic,1.6737,False,3.364769391562311,8.329802185658792,27.16501
TiTlPS5,4,top-down,P-1,-1,triclinic,1.1585,False,7.00893712184084,10.391136198421341,22.855336089124144
TiCd,2,top-down,P4/nmm,4/mmm,tetragonal,0.0,False,2.87317329,2.87317329,26.632414
Cr(CoO3)2,3,top-down,P-31m,-3m,trigonal,0.0,False,4.949352049208427,4.949352481289931,21.913056
Sr2TiCu2O7,4,top-down,Pmc2_1,mm2,orthorhombic,0.0,False,5.1476007741803675,5.273840958282521,29.582462
YWF5,3,top-down,Pmmm,mmm,orthorhombic,0.3631000000000002,False,4.44599032,8.6697096,24.43284
SrH4(SO4)3,4,top-down,P-1,-1,triclinic,5.3913,False,6.011233636975986,8.466583506677857,31.219281
Nb2TeO8,3,top-down,P2/c,2/m,monoclinic,0.7063999999999995,False,5.222160863636349,5.946050566213447,27.511109
MnSbSe2Br,4,top-down,Pmc2_1,mm2,orthorhombic,0.11529999999999996,False,3.82769429,10.41340425,25.519902
ZrNCl,3,top-down,P-3m1,-3m,trigonal,2.7286,True,3.63847518,3.638474698841241,26.31096091
HfBrN,3,top-down,Pmmn,mmm,orthorhombic,2.1644,True,3.5710998,4.10801185,25.912778
DyBC,3,top-down,Pmma,mmm,orthorhombic,0.0,False,3.39812449,3.52837805,24.001417
Sr2FeSO3,4,top-down,P4/nmm,4/mmm,tetragonal,0.0,False,3.97984585,3.97984585,31.36543734
HoBrO,3,top-down,P-3m1,-3m,trigonal,4.2441,True,3.81441335,3.8144129130717848,26.680751
Cd3Se3O10,3,top-down,P2_1,2,monoclinic,3.1866999999999996,False,5.48330737,10.22431315,32.649489
SrCO3,3,top-down,P2/m,2/m,monoclinic,1.0711999999999997,True,5.88198849,8.11266076,23.988307
GaPS4,3,top-down,P2_1/c,2/m,monoclinic,2.2931,True,7.76050841,12.039968791308455,23.394452968094257
Ca2FeClO3,4,top-down,P4/nmm,4/mmm,tetragonal,0.8457,False,3.84170937,3.84170937,31.6934959
BSbO3,3,top-down,P-1,-1,triclinic,4.2836,False,4.777803889038551,5.8969877523065835,22.905553761184237
BaTl(NiO3)2,4,top-down,Pm,m,monoclinic,0.0,False,3.6590371028341,3.641773331519288,39.797343
YNiF5,3,top-down,Pmmm,mmm,orthorhombic,0.0,False,4.4075651,8.18594518,24.382242
LiAgF4,3,top-down,P2/m,2/m,monoclinic,0.6796999999999995,False,3.5412952704592433,6.3388647710827675,23.97049
PPdSe,3,top-down,P2/c,2/m,monoclinic,1.0372,False,5.86338291,5.92652677626816,24.41925760199644
BaTaCuO5,4,top-down,P4mm,4mm,tetragonal,0.0,False,3.80239625,3.80239625,25.37263149
Ba3BPO7,4,top-down,P3m1,3m,trigonal,0.01869999999999994,False,5.93311297,5.933113095475382,26.459412
Ti(BiO3)2,3,top-down,P4mm,4mm,tetragonal,0.0,False,5.46899523,5.46899523,24.463288
LiMnCr2O6,4,top-down,Cm,m,monoclinic,0.5639000000000003,False,2.957815336129493,7.80306737777222,22.256915894560283
Fe4S5,2,top-down,P4/n,4/m,tetragonal,0.0,False,7.844504360880895,7.84558623000454,22.534581
TlF,2,top-down,Pbcm,mmm,orthorhombic,3.6288,False,5.20625891,5.40134666,23.093988
MgV2O6,3,top-down,C2/m,2/m,monoclinic,2.8617999999999997,False,3.67560063,9.29290978229875,24.197288
Ag2Se,2,top-down,Pmma,mmm,orthorhombic,0.9976000000000003,False,4.76161312,5.99082176,23.357037
UTeN,3,top-down,P4/nmm,4/mmm,tetragonal,0.0,False,3.85054804,3.85054804,25.741484
NdTe2Se,3,top-down,P4/nmm,4/mmm,tetragonal,0.0,False,4.30463876,4.30822185,29.007166
Ta2Zn2FeO8,4,top-down,P2/c,2/m,monoclinic,2.578,False,5.325778920773278,6.042639160433148,26.78638659101069
CaCoO3,3,top-down,P4mm,4mm,tetragonal,0.0,False,3.167778464549631,3.1677783876491294,23.886175
TmClO,3,top-down,Pmmn,mmm,orthorhombic,5.3508000000000004,True,3.68418342,4.11266333,25.82887834
AgClO2,3,top-down,P2_1/m,2/m,monoclinic,0.18619999999999948,False,4.25163948,5.27758451441745,24.9539315588426
Sn3(HO2)2,3,top-down,P-4,-4,tetragonal,2.8783000000000003,False,7.87620886,7.87620886,25.096753
LiNiPO4,4,top-down,Pmma,mmm,orthorhombic,0.0,False,5.77169157,8.17198926,22.503776
Ta2Zn2CoO8,4,top-down,P2/c,2/m,monoclinic,2.7056999999999998,False,5.294791517907248,6.009690004811069,28.437725
V3Fe3(TeO8)2,4,top-down,P1,1,triclinic,1.5410999999999997,False,5.882927816337909,5.963344166130534,28.48139229554643
Ga2Os,2,top-down,C222,222,orthorhombic,0.0,False,5.428211860000002,4.1484748776408065,21.36463
SrTa2Bi2O9,4,top-down,Pmc2_1,mm2,orthorhombic,2.2875,False,5.59490163,5.55540587,33.498222
MgMn4O9,3,top-down,P4/n,4/m,tetragonal,0.15880000000000027,False,8.510018020114629,8.510125840004845,25.605327
Li4V(TeO4)3,4,top-down,P2,2,monoclinic,0.3247,False,4.984304784761151,5.051409095996169,28.127374
VH2O3,3,top-down,P2/c,2/m,monoclinic,1.5981,False,3.72191188,6.1557563013347245,23.449991259674047
Ca2Bi10O17,3,top-down,Cm,m,monoclinic,1.9842999999999997,False,7.91809354777065,7.9180931533722445,27.300218
Tl2PAuS4,4,top-down,P2_1/m,2/m,monoclinic,1.4799000000000002,False,6.35532107,6.75589729,29.131962
H2PbO2,3,top-down,Pmn2_1,mm2,orthorhombic,3.0542000000000002,False,3.7226699,8.61394768,21.45804114
LiSnPO4,4,top-down,Pc,m,monoclinic,0.0,False,5.726469366586146,9.648846122855677,26.26993185
LiMnF4,3,top-down,Pmma,mmm,orthorhombic,0.0,False,3.92930745,8.25825091,25.474924
Al2Si2H4O9,4,top-down,P1,1,triclinic,4.4814,False,5.185668984188219,5.172749690203438,25.319905
Mo3O7,2,top-down,Pmn2_1,mm2,orthorhombic,0.7963,True,5.59863736,11.44260934,24.594924
ZrI2,2,top-down,P2_1/m,2/m,monoclinic,0.43230000000000013,False,3.76320345,6.886002796494601,24.58976838777305
SmZnPO,4,top-down,P-3m1,-3m,trigonal,1.7118000000000002,True,3.95266763,3.9526669925318574,28.465078
Li2H2Pd,3,top-down,P4/mmm,4/mmm,tetragonal,0.0,False,3.06482101,3.06482101,23.384594
LiV2OF7,4,top-down,Cm,m,monoclinic,2.0871000000000004,False,5.809769990260907,5.811076642127498,22.938109
BaY3Br11,3,top-down,Pmma,mmm,orthorhombic,3.1451,False,5.55434252,10.75285304,63.001127
Ca(TiS2)8,3,top-down,P-3m1,-3m,trigonal,0.0,False,6.8277288,6.827728531856226,29.850033
Ca(HO)2,3,top-down,P3m1,3m,trigonal,3.9134,True,3.8465121,3.846512044085738,22.885454
Tl(MoO3)3,3,top-down,P2/m,2/m,monoclinic,0.5552000000000001,True,6.491636566051685,7.88080798,28.195889304565423
MoN,2,top-down,C2/m,2/m,monoclinic,0.18120000000000003,True,2.8266563069251567,2.8260519400127797,23.701245769447
V4ZnO10,3,top-down,Pmm2,mm2,orthorhombic,0.9339000000000004,False,3.694728634003886,11.43806431304107,23.47403967177202
CaH6C2O7,4,top-down,P-1,-1,triclinic,3.5204000000000004,False,6.193821775381677,8.380307319636135,26.27076008904133
LiAsO3,3,top-down,P-31m,-3m,trigonal,3.6967,False,4.913540130000001,4.913539476415258,22.5514498
Th(TeI)2,3,top-down,C2/m,2/m,monoclinic,1.4586000000000001,False,7.74052397,8.137002921243003,24.98177
Na(SnAs)2,3,top-down,P-3m1,-3m,trigonal,0.0,False,4.12938057,4.12938053674409,26.883159
Sr(AlCl4)2,3,top-down,P2/c,2/m,monoclinic,5.5657000000000005,True,6.96611753,12.5705162,24.953086
MgCr2O5,3,top-down,Pmmn,mmm,orthorhombic,0.0,False,3.8398972,11.33033803,24.227009
HfGeTe4,3,top-down,Pmn2_1,mm2,orthorhombic,0.7240000000000002,False,4.00514965,11.05880647,27.550994
HgH2NCl,4,top-down,Pmma,mmm,orthorhombic,2.3038,True,4.31214575,6.71010882,23.93919038
Sr2Cu2BiO7,4,top-down,Pmc2_1,mm2,orthorhombic,0.0,False,5.094512021173769,5.1399388898381115,30.300048455578477
Si(PbS2)2,3,top-down,P2_1/c,2/m,monoclinic,2.0979,True,6.7357773,17.93324444,23.544389
MgCl2,2,top-down,Cmmm,mmm,orthorhombic,5.4756,True,7.0467734182788915,7.089255573313288,23.447315564834213
MgGe2WO6,4,top-down,P2_1/c,2/m,monoclinic,1.5390000000000001,False,5.55599937,8.46828858,30.197588
Hg3AsSe4Br,4,top-down,P3m1,3m,trigonal,1.831,True,7.69277791,7.692777814760485,23.287556
CdHgAsBr,4,top-down,Pmma,mmm,orthorhombic,1.3832,False,4.73040678,10.9840017,29.698516
Se2Cl2O5,3,top-down,P4/mmm,4/mmm,tetragonal,0.0,False,3.68454046,3.68454046,28.317362
NaCdPO4,4,top-down,P2_1/m,2/m,monoclinic,2.8669,False,5.50681469,6.50638312,24.727671
Li2Fe2Si2O7,4,top-down,P-1,-1,triclinic,3.408,True,5.357289091864469,5.36289142537588,24.630837
LiMnF3,3,top-down,P-31m,-3m,trigonal,3.9104,False,5.457595050446738,5.457259677591508,23.503823
Cu3OF5,3,top-down,P2_1,2,monoclinic,0.0,False,4.3977299,5.263837127811719,27.0037478239064
PrS3,2,top-down,P6/mmm,6/mmm,hexagonal,0.0,False,5.61749447,5.617494440770041,19.93380323
TeI,2,top-down,C2/m,2/m,monoclinic,1.0440999999999998,False,4.217653723135928,9.63709010077117,26.02587771656361
LiCuO2,3,top-down,P2/m,2/m,monoclinic,0.6372,False,2.68813443,5.379771078898981,17.291106239850826
K(SbSe2)2,3,top-down,P-1,-1,triclinic,1.3655,False,6.192912525751355,6.794780222254657,29.568789529357677
Cr4O9,2,top-down,P4/n,4/m,tetragonal,0.40520000000000067,False,8.307835210935869,8.307629994927478,24.343233
ZnCo2S5,3,top-down,Pmmn,mmm,orthorhombic,0.0,False,3.78460154,13.148025198723994,23.408465015444015
VOF,3,top-down,Pmmn,mmm,orthorhombic,1.6339000000000006,False,3.13731754,3.85664914,24.416017
NbBi7O13,3,top-down,P1,1,triclinic,0.0,False,3.759393794422588,3.9347328667848975,60.856818
YTiF5,3,top-down,Pmmm,mmm,orthorhombic,0.0,False,4.40646941,8.45945417,23.43752527
MnBiS2Br,4,top-down,P2/m,2/m,monoclinic,0.0,False,3.81594285,10.361633791445993,23.081887625267743
Li2Nb4O11,3,top-down,C2/m,2/m,monoclinic,2.538,False,3.80912062,8.434378951813207,25.788524821385472
Ag(TeMo)6,3,top-down,C2/m,2/m,monoclinic,0.0,False,4.61385521,9.431845194849798,26.56725503252899
FeCo3O8,3,top-down,P-3m1,-3m,trigonal,0.0,False,5.7469975,5.746998151611349,22.05253452
MgMo2O5,3,top-down,Pmmn,mmm,orthorhombic,0.0,False,3.80720501,12.06157074,25.93351621
YCl,2,top-down,P-3m1,-3m,trigonal,0.0,False,3.73008288,3.7300827914043704,26.2419972
Sb2TeSe2,3,top-down,P3m1,3m,trigonal,0.706,False,4.14429494,4.144295303609294,27.12030443
In2GaBiS6,4,top-down,P2_1/m,2/m,monoclinic,0.5896000000000001,False,3.7958592,12.45744891,31.992303
NdS3,2,top-down,P6/mmm,6/mmm,hexagonal,0.0,False,5.58461173,5.584611412237591,19.95712964
CdPS3,3,top-down,P-31m,-3m,trigonal,2.1510000000000002,False,6.261838676519064,6.2618540597869226,23.42666663069888
Si3Mo,2,top-down,P6/mmm,6/mmm,hexagonal,0.0,False,4.94735971,4.947360223004999,20.04370041
SbBrO,3,top-down,P4/nmm,4/mmm,tetragonal,1.7199,False,3.82735144,3.82735144,25.59694316
WF5,2,top-down,Pmmm,mmm,orthorhombic,1.9443000000000001,False,3.72688592,4.39074609,23.822026
Hg(BiS2)2,3,top-down,C2/m,2/m,monoclinic,2.1032,False,4.1336007100280225,7.442064022508586,24.208086
NaBH8O7,4,top-down,P-1,-1,triclinic,4.0306999999999995,True,6.747533423881732,7.928648868879191,24.68949660195405
Fe3P2(HO)16,4,top-down,P2/m,2/m,monoclinic,2.3251,False,4.7327600689697125,10.190883854402555,27.06716053
Tl2Ni(CN)4,4,top-down,Pmna,mmm,orthorhombic,2.4819999999999998,False,6.98790272,9.555564,24.742135
VOF3,3,top-down,P-1,-1,triclinic,1.670700000000001,False,5.320894177473737,10.282664155531927,23.368278757888888
VAg(PSe3)2,4,top-down,C2,2,monoclinic,0.09560000000000013,False,6.36676147,6.42180238590248,23.492781
Mg(AgO2)2,3,top-down,Pmma,mmm,orthorhombic,0.0,False,3.05864104,9.65651994,24.24266387
Nb2WO8,3,top-down,P2/c,2/m,monoclinic,2.1839999999999997,False,5.126666839225093,5.974356415081492,27.37537818258232
LiWCl6,3,top-down,P3,3,trigonal,0.07430000000000003,False,12.32210759,12.322108046254433,22.44977935
SiH,2,top-down,P-3m1,-3m,trigonal,2.1852,False,3.89605202,3.8960523631316732,23.80094646
ZnCl2,2,top-down,P-4m2,-42m,tetragonal,4.3187,False,3.67151561,3.67151561,22.7501751
I,1,top-down,Cmmm,mmm,orthorhombic,0.0,False,3.2440112772248426,3.2440113046631445,20.0
SnSe2,2,top-down,P-3m1,-3m,trigonal,0.7975000000000003,False,3.86639999,3.8664000892303596,23.192878
ZnI2,2,top-down,P-3m1,-3m,trigonal,2.0149,False,4.07365676,4.07365723843005,23.259981
CaI2,2,top-down,P-3m1,-3m,trigonal,3.8625000000000003,False,4.4850484,4.485047815862076,23.529845
Ba2Co3O8,3,top-down,P4/mmm,4/mmm,tetragonal,0.0,False,3.840151300607534,3.840151309182078,28.441951
YClO,3,top-down,P-3m1,-3m,trigonal,4.9464,False,3.80948898,3.8094887963014044,26.366313
LiFeAs,3,top-down,P4/nmm,4/mmm,tetragonal,0.0,False,3.75754555,3.75754555,24.043524
TiOF,3,top-down,Pmmn,mmm,orthorhombic,0.0,False,3.05108161,4.01594091,24.07683
SbF5,2,top-down,Pmmm,mmm,orthorhombic,0.8367000000000004,False,3.72464536,4.53447245,23.53332752
HfTeSe4,3,top-down,P2/m,2/m,monoclinic,1.1005000000000003,True,3.8537074,6.83812112,23.212728
AlHO2,3,top-down,Pmn2_1,mm2,orthorhombic,3.8135000000000003,True,2.91217146,3.66189703,25.598377
AgCNO,4,top-down,Pmm2,mm2,orthorhombic,1.2210999999999994,False,3.52285762,5.53214724,20.0
NbIrS4,3,top-down,P2/m,2/m,monoclinic,0.0,False,3.47840247,5.56118002,23.045767
KNO3,3,top-down,Pmc2_1,mm2,orthorhombic,3.3364999999999996,False,5.27790683,6.40088835,24.16476094
Cr3Te4,2,top-down,P-3m1,-3m,trigonal,0.0,False,4.019856759945098,4.019856389691412,29.269663
MoF5,2,top-down,Pmmm,mmm,orthorhombic,0.8261000000000003,False,3.71777759,4.39333349,23.786277
CaTi2O5,3,top-down,Pmmn,mmm,orthorhombic,2.9042999999999997,False,3.98208587,10.10259897,21.08489992
USe3,2,top-down,Pmmn,mmm,orthorhombic,0.0,False,4.02449044,5.71446967,26.301346
PbBrCl,3,top-down,P4/nmm,4/mmm,tetragonal,2.3673,False,5.99411529,5.99411529,15.52873284
Lu2CCl2,3,top-down,P-3m1,-3m,trigonal,1.0343999999999998,False,3.59142086,3.591420150624314,26.048794
NbBr2O,3,top-down,Pmm2,mm2,orthorhombic,0.8354000000000004,False,3.931708350094571,7.051289701253178,24.214197
CuHO2,3,top-down,Pmn2_1,mm2,orthorhombic,0.7427999999999999,False,2.77007679,4.4113937,24.066595
CoH2SeO4,4,top-down,Pc,m,monoclinic,2.5942,False,4.77193389657833,5.687984409097874,23.957175
LiCo5O5F,4,top-down,P3m1,3m,trigonal,0.0,False,3.26025211,3.2602523203445246,35.00001053
LiFeF4,3,top-down,P-42m,-42m,tetragonal,4.1101,False,4.6093629,4.6093629,21.578295
NiO2,2,top-down,P-3m1,-3m,trigonal,1.8949999999999996,False,2.7948986,2.7948991901083775,21.900659
Ca(Bi2O3)2,3,top-down,Cm,m,monoclinic,0.0009000000000000119,False,6.668937400511892,10.318561301916652,26.7141874086206
ScPS4,3,top-down,P-1,-1,triclinic,1.9038999999999997,False,6.246678481066323,6.506212841215344,24.87913
MoP4O13,3,top-down,P1,1,triclinic,1.3489000000000004,False,5.103988783893931,7.918640145272332,25.485941823510334
Al2O3,2,top-down,Pm,m,monoclinic,4.2021999999999995,False,2.8976974658235397,5.031662454762512,22.897821
Ge4Te7As2,3,top-down,P-3m1,-3m,trigonal,0.4222000000000001,False,4.1965341,4.196533426991917,60.798672
C3N4,2,top-down,P-6m2,-6m2,hexagonal,1.1724999999999999,False,7.129135566830779,7.129135232505977,20.0
TaTe2,2,top-down,C2/m,2/m,monoclinic,0.0,False,3.6334369875948007,9.806928483727992,24.056261
MgW2O5,3,top-down,Amm2,mm2,orthorhombic,0.5204,False,3.70461309,5.872201638626966,23.45301
ErCoSi2,3,top-down,P4/nmm,4/mmm,tetragonal,0.0,False,3.95305817,3.95330498,26.740257
YBrO,3,top-down,P-3m1,-3m,trigonal,4.3099,False,3.84499032,3.8449898311933985,26.738544
AgNO3,3,top-down,P-6,-6,hexagonal,2.3217,False,5.24344288000002,5.243443094595879,20.973331
AlSbO3,3,top-down,P31m,3m,trigonal,1.6456,False,5.59538474,5.595384654447268,24.342392
VSe2,2,top-down,P-3m1,-3m,trigonal,0.0,False,3.36285178,3.3628526183415315,23.151102
Hg3AsS4Cl,4,top-down,P3m1,3m,trigonal,2.1443,True,7.39663104,7.39663161009943,23.050043
NbOF2,3,top-down,Pmmm,mmm,orthorhombic,0.0,False,3.400934911723726,3.896749108176162,22.529864
As2Se3,2,top-down,Pc,m,monoclinic,1.6149,False,4.397355050869643,12.108612046023422,23.079343
TiNbS4,3,top-down,P2/m,2/m,monoclinic,0.0,False,3.39015456,5.89162415,23.018167
Fe(CoO3)2,3,top-down,P-31m,-3m,trigonal,0.25229999999999997,False,4.94461037,5.00682880996279,21.899476
NaSbO2,3,top-down,Pca2_1,mm2,orthorhombic,3.4087,False,4.8003139,6.38208137,25.544556
Mn2FeO6,3,top-down,P-31m,-3m,trigonal,0.1864000000000008,False,5.05892775,5.102275251582107,21.926247
LiMnF5,3,top-down,P2_1,2,monoclinic,2.3728000000000007,False,4.88510718,5.72626929,24.477972
Sr(SnAs)2,3,top-down,P-3m1,-3m,trigonal,0.9359000000000002,False,4.16661855,4.166618508484423,27.23763823
V6O13,2,top-down,Pmma,mmm,orthorhombic,0.0,False,3.67687092,11.901578592075516,28.591780338307025
BiF4,2,top-down,P4/mmm,4/mmm,tetragonal,0.7246999999999995,False,5.41083658545028,5.4116433642898505,22.404799976229427
AgBiSCl2,4,top-down,Pmma,mmm,orthorhombic,0.7596999999999996,False,3.87945399,9.67557354,25.921726
Mo(WO4)2,3,top-down,P-1,-1,triclinic,1.9269999999999996,True,4.992930289184819,5.411907496348723,25.444294
LiVSiO4,4,top-down,P2_1/m,2/m,monoclinic,2.3013000000000003,False,4.746652860080942,6.291069080039417,24.439799
FeP4,2,top-down,P2_12_12,222,orthorhombic,0.0,False,5.35719115,5.5165474,24.743267
Hf2Al4C5,3,top-down,P-3m1,-3m,trigonal,0.0,False,3.31155564,3.3115553972655225,31.760554
Zn(SbO2)2,3,top-down,Pmc2_1,mm2,orthorhombic,0.8658000000000001,False,3.10946905,9.70774166,24.4828183
V2MoO8,3,top-down,Cmm2,mm2,orthorhombic,1.7477,False,3.68914214,9.671053085299102,22.114592
BaMn4O8,3,top-down,P-31m,-3m,trigonal,0.0,False,5.56838238,5.568383021667978,24.21549689
Sr3Nb4O13,3,top-down,P4/mmm,4/mmm,tetragonal,0.9965000000000002,False,3.97677481,3.97677481,37.275702
PbClF,3,top-down,P4/nmm,4/mmm,tetragonal,2.9023999999999996,True,5.831204917247285,5.831204910814745,21.297566640227792
SbF5,2,top-down,Pmma,mmm,orthorhombic,1.9886,False,3.64236542,8.50375291,23.50822064
AlSnF5,3,top-down,Pmmm,mmm,orthorhombic,0.0055000000000005045,False,3.65371562,8.06404614,23.703964
InGeCl3,3,top-down,Cm,m,monoclinic,2.7401999999999997,True,5.416359743246682,5.419780524576297,22.376202
Fe3(O2F)2,3,top-down,Pmmm,mmm,orthorhombic,0.0,False,2.98776234,6.61083931,29.229885
Mo3O8,2,top-down,P2/m,2/m,monoclinic,0.9094000000000007,False,5.23865706,6.11570099,22.496084
PrTe2Se,3,top-down,P4/nmm,4/mmm,tetragonal,0.0,False,4.31981879,4.32265643,29.01816427
TcS2,2,top-down,P-1,-1,triclinic,1.2219,False,6.41231210814126,6.513507002798752,23.587171989629365
CuBiSCl2,4,top-down,Pmma,mmm,orthorhombic,0.2630999999999999,False,3.8921455,8.63705744,25.271928
ZnGeO3,3,top-down,P-31m,-3m,trigonal,2.7475,False,5.08302106,5.083020374722529,23.707471
P2WO8,3,top-down,P2_1/m,2/m,monoclinic,2.5296,True,5.21733747,6.97338739,28.007786
Mg3(HO3)2,3,top-down,C2/m,2/m,monoclinic,2.4572,False,3.11285683,8.997247226828176,24.074077
P4WO13,3,top-down,P1,1,triclinic,2.1689,False,5.1745808214419755,7.921146565653651,25.660175
Zn3(InS3)2,3,top-down,P3m1,3m,trigonal,0.0,False,3.88895684,3.888957318339395,35.90976826
GeWO4,3,top-down,P2/c,2/m,monoclinic,2.5046000000000004,False,4.752597925226775,5.0532337956294295,24.399153
P2Pd3S8,3,top-down,P-3m1,-3m,trigonal,1.7793,False,6.88273402,6.88273392576657,28.569872
AlBiO3,3,top-down,P2_1/c,2/m,monoclinic,3.2891,False,5.00164432,8.01014753,24.450919
GdBrO,3,top-down,P4/nmm,4/mmm,tetragonal,2.9656000000000002,True,3.87440482,3.87440482,25.655009
Mg2Te3O8,3,top-down,C2,2,monoclinic,3.4332000000000003,True,5.2032771,6.883430965723374,25.147238