Formula,No. of Elements,Discovery Process,Space Group,Point Group,Crystal System,Band Gap,Is Gap Direct?,a,b,c
AlF,2,bottom-up,P4mm,4mm,tetragonal,0.0,False,2.953768076427062,2.9537681664270035,22.48503400000043
InAs3,2,bottom-up,P-3m1,-3m,trigonal,0.6545000000000001,False,8.00079300052076,8.000769870924422,21.19825300025436
Te3N2,2,bottom-up,P2_1/m,2/m,monoclinic,0.0,False,3.099190291530258,10.054218694536099,26.29047864395739
CuF,2,bottom-up,P-3m1,-3m,trigonal,0.0,False,2.9287516773454567,2.9225350935365286,23.814547247181956
B3Ir,2,bottom-up,P-6m2,-6m2,hexagonal,0.0,False,3.5093373100001393,3.5093373333862763,25.130912000000077
NbTe3,2,bottom-up,P-1,-1,triclinic,0.0,False,6.038363394461386,7.342329493530065,26.333746948532742
NbF4,2,bottom-up,P2_1/c,2/m,monoclinic,0.12740000000000018,False,4.840414107684671,7.866947608253947,25.82755585800257
V3Cl8,2,bottom-up,P3m1,3m,trigonal,0.22020000000000017,True,6.516935,6.516935386691585,24.052163
Bi9F2,2,bottom-up,P2_1/m,2/m,monoclinic,0.0,False,4.38742252,13.120302458549022,34.941316581058786
P3C,2,bottom-up,P-3m1,-3m,trigonal,0.0,False,6.272216370956636,6.272233218354071,21.680163402037508
As2Pt,2,bottom-up,C2/m,2/m,monoclinic,0.0,False,7.324167134362036,6.795244415707576,22.895026042880165
InN,2,bottom-up,P-6m2,-6m2,hexagonal,0.5855999999999999,False,3.582492250021204,3.582492433403124,20.000000000128193
Sn3Pt,2,bottom-up,P4/mbm,4/mmm,tetragonal,0.0,False,6.386238424992721,6.387009571838192,25.862686990425438
HgF2,2,bottom-up,P-3,-3,trigonal,1.9628999999999994,True,6.351826842508373,6.351628385880938,23.168642011078582
Y2Se3,2,bottom-up,P1,1,triclinic,1.6425,False,7.163355989951637,7.409609212902122,22.16863983627383
P3Pb,2,bottom-up,P-3m1,-3m,trigonal,0.5305999999999997,False,7.266397005518554,7.26642921738628,21.680164026143714
Tl2S3,2,bottom-up,P-62m,-6m2,hexagonal,0.7582,True,6.849800940142642,6.849799129082801,20.011829000043935
RhC3,2,bottom-up,P-1,-1,triclinic,0.0,False,5.088906681193681,5.030475366374486,27.286923999414036
N9Cl2,2,bottom-up,P2_1/m,2/m,monoclinic,0.0,False,3.269117080000615,9.139881548958883,35.12779926148288
Ge4Ir,2,bottom-up,P4/nbm,4/mmm,tetragonal,0.0,False,6.146373220100179,6.146354090040678,22.924308000499458
Sc5I8,2,bottom-up,P2/m,2/m,monoclinic,0.0,False,3.9099903500037194,14.578408428218312,25.193485114313617
Sb2O5,2,bottom-up,Pmn2_1,mm2,orthorhombic,1.2399000000000004,True,5.874071040083452,8.348679954541074,25.596389134187262
Se3N2,2,bottom-up,P2_1/m,2/m,monoclinic,0.0,False,2.838867877837793,9.423516472877422,26.256359415490866
N2O3,2,bottom-up,P1,1,triclinic,1.4348,True,3.4369819345303587,5.052889793243231,22.271622267532802
B2S,2,bottom-up,P1,1,triclinic,0.5692999999999999,False,8.338282603734491,8.085884355098674,23.541925689213496
HgF2,2,bottom-up,P-4m2,-42m,tetragonal,2.2432999999999996,True,7.517484611256885,7.516190140011741,26.753850004479183
CeC5,2,bottom-up,Pmmm,mmm,orthorhombic,0.0,False,3.291445637593479,4.703590943262083,23.338286000906933
CoGe3,2,bottom-up,P4/mbm,4/mmm,tetragonal,0.0,False,5.643170590766018,5.643118550519656,25.635831922557166
P4I,2,bottom-up,P2/m,2/m,monoclinic,0.0,False,3.3710291703458957,10.42682007604444,33.929180967490225
Si3I8,2,bottom-up,P1,1,triclinic,1.4085,False,7.183724175320369,8.23302106260805,34.56490976278632
Sb2Te5,2,bottom-up,P2_1/c,2/m,monoclinic,0.3358,True,8.73048285,7.753488481319074,32.073157952086255
Ge3Pd,2,bottom-up,P4/mbm,4/mmm,tetragonal,0.0,False,5.793019322658522,5.790469555936701,25.862686926024057
AsF3,2,bottom-up,P2_1/c,2/m,monoclinic,5.1725,True,7.500026519546781,7.652243000115849,24.60036113240019
CrF2,2,bottom-up,C2/m,2/m,monoclinic,2.7957,False,3.1271363350573878,3.5204728086345236,23.141234610731573
InF,2,bottom-up,Pbcm,mmm,orthorhombic,2.1104,False,4.6986227900069855,5.747086480153981,23.094000650027553
TlBi5,2,bottom-up,Pmc2_1,mm2,orthorhombic,0.0927,True,8.28258751,14.24572511,26.806861
FeI4,2,bottom-up,P2_1/c,2/m,monoclinic,0.0,False,6.949969706262826,7.305410561693231,23.480616199176314
BF,2,bottom-up,Pbcm,mmm,orthorhombic,0.0,False,3.1544730109032475,5.561707894598025,23.09398990179451
CrTe2,2,bottom-up,P2_1/m,2/m,monoclinic,0.0,False,3.7276178618130564,6.372067539013946,24.19321542366416
MoI4,2,bottom-up,P-1,-1,triclinic,0.0,False,6.316604826892867,7.815223269581774,23.603823763513073
VTe3,2,bottom-up,P-1,-1,triclinic,0.0,False,6.17247385943781,7.178377772672561,26.3429496706062
Sb2O3,2,bottom-up,Pmn2_1,mm2,orthorhombic,3.5316,False,4.2187093789231325,5.735687735073973,23.93501704133377
NiS,2,bottom-up,P4/nmm,4/mmm,tetragonal,0.0,False,3.7667850044987965,3.7666930044942606,22.999467000027693
CoBr4,2,bottom-up,P2_1/c,2/m,monoclinic,0.0,False,5.9981536742128405,6.304356688712844,23.09084148160124
Re2I7,2,bottom-up,Pc,m,monoclinic,0.028200000000000003,False,8.246809723951541,11.956042851860808,23.689984733972853
NiPb3,2,bottom-up,P4/mbm,4/mmm,tetragonal,0.0,False,6.543829504100006,6.538724464129639,26.095599000016847
TaSe3,2,bottom-up,P2_1/m,2/m,monoclinic,0.0,False,3.5124243500000034,15.801330900731372,27.85606101526017
BP3,2,bottom-up,P-3m1,-3m,trigonal,0.0,False,6.509966000806303,6.509823866368583,21.1982530006564
VI3,2,bottom-up,P-31m,-3m,trigonal,0.08699999999999974,False,6.957366001376528,6.957333261245001,22.71917901307693
FeF2,2,bottom-up,P-3m1,-3m,trigonal,0.0,False,3.177323000476187,3.176861580844844,22.999163267184677
Sn3Rh,2,bottom-up,P4/mbm,4/mmm,tetragonal,0.0,False,6.370842616366272,6.36944038285924,25.635832005468487
P4C3,2,bottom-up,P-6m2,-6m2,hexagonal,0.14480000000000004,False,9.021634233064036,9.021636473526792,20.000000004334495
La2Cl3,2,bottom-up,C2/m,2/m,monoclinic,0.28729999999999994,False,4.109289286622867,10.162447834997877,25.499526817083108
S5N2,2,bottom-up,P2_1,2,monoclinic,0.37949999999999995,True,7.504050951031971,6.062281438779661,32.593635631265734
NiGe4,2,bottom-up,P4/nbm,4/mmm,tetragonal,0.0,False,5.916950443972561,5.933098268197781,22.903963000353237
Si3P4,2,bottom-up,Amm2,mm2,orthorhombic,0.0,False,10.072451905965728,10.072434124284817,20.00000088444623
Tc2I5,2,bottom-up,P2/c,2/m,monoclinic,0.0,False,6.4387983961587825,6.929495015908194,25.157913588621913
Si3N4,2,bottom-up,Amm2,mm2,orthorhombic,0.0,False,8.461753434844821,8.461995980537292,20.000000067079448
PI4,2,bottom-up,P-1,-1,triclinic,0.0,False,6.42331139694391,8.045620467771307,25.277268613017455
LuC2,2,bottom-up,P4/mmm,4/mmm,tetragonal,0.0,False,3.3730316708287313,3.373040465136744,23.779510000000617
Sc2Te3,2,bottom-up,P1,1,triclinic,0.2784,True,7.048256389518971,7.338159366544516,21.514654740450425
WI4,2,bottom-up,P1,1,triclinic,0.03550000000000009,False,6.806416037910048,7.233707160322914,22.739886467914605
NbI4,2,bottom-up,P2_1/c,2/m,monoclinic,0.000600000000000156,False,6.978022330242544,10.293746428095394,25.791856476741508
Sn4Rh,2,bottom-up,P4/nbm,4/mmm,tetragonal,0.0,False,6.4931535200011385,6.493155840001051,22.92430800000057
Re2Br7,2,bottom-up,P2_1,2,monoclinic,0.05719999999999992,False,6.401019609768671,9.428411495925172,31.3990529677652
CoSn4,2,bottom-up,P4/nbm,4/mmm,tetragonal,0.0,False,6.317952400219055,6.3179355102516865,22.924308000159506
Hf3S2,2,bottom-up,P4/mmm,4/mmm,tetragonal,0.0,False,3.466973031184119,3.4679310311750724,26.086724000003546
PdN2,2,bottom-up,P-1,-1,triclinic,0.032099999999999795,False,3.655941079260715,7.8364575106397405,25.86392885442407
NiBi2,2,bottom-up,P-3m1,-3m,trigonal,0.0,False,7.076762998689737,7.0500305455528505,22.860067591424976
Si3Pd,2,bottom-up,P42_12,422,tetragonal,0.0,False,5.793602568015061,5.795380772722117,25.86268655551289
NiTe,2,bottom-up,P4/nmm,4/mmm,tetragonal,0.0,False,3.60891805943956,3.608974059438638,22.999467000000106
BiPb,2,bottom-up,C2/m,2/m,monoclinic,0.2985,True,4.615713023762428,13.569064677846631,24.728863405403697
UF4,2,bottom-up,C2/m,2/m,monoclinic,0.38400000000000034,False,5.726671012018287,5.726670877800448,25.18472520133477
InN3,2,bottom-up,C2/m,2/m,monoclinic,0.49049999999999994,False,5.678745761445188,5.716786111263542,21.21354469439509
BSe,2,bottom-up,C2/m,2/m,monoclinic,1.7394999999999998,True,3.2667763011397453,4.13048267195298,23.454364657055088
Pb3Cl8,2,bottom-up,P1,1,triclinic,0.6590000000000003,False,6.9276649927272755,5.456555448826764,34.319236369172714
CF3,2,bottom-up,P1,1,triclinic,3.3165,False,4.405336752652855,7.450412554062359,24.138177462728226
Ga2Te3,2,bottom-up,P-62m,-6m2,hexagonal,1.4087999999999994,True,7.275355293357292,7.27555351995594,20.011829022619818
SiN2,2,bottom-up,Pmc2_1,mm2,orthorhombic,0.6915999999999998,False,2.814846270000627,9.477794861421382,26.149775003935428
P2Pt,2,bottom-up,C2/m,2/m,monoclinic,0.0,False,6.4787536261679985,6.478835598827771,22.894992473623766
PdPb3,2,bottom-up,P4/mbm,4/mmm,tetragonal,0.0,False,6.712990650400272,6.705205479725134,25.862687057068232
P4Br,2,bottom-up,P2/m,2/m,monoclinic,0.0,False,3.403036890068463,10.408985668587414,33.81252679600741
AuS2,2,bottom-up,P-3m1,-3m,trigonal,0.0,False,3.638459,3.613662826980542,23.00983930039082
Bi2S5,2,bottom-up,P2_1/c,2/m,monoclinic,0.4758000000000002,False,9.108558895125137,6.548004768284225,32.15880734289038
CoTe,2,bottom-up,P4/nmm,4/mmm,tetragonal,0.0,False,3.7421281519323943,3.742127621932397,22.797818000000124
AgBr,2,bottom-up,Pmma,mmm,orthorhombic,0.9532000000000003,False,3.8298400000048303,3.929824000000636,23.042555000028752
Tc2I7,2,bottom-up,P2/c,2/m,monoclinic,0.0005999999999999339,False,6.968834800960792,13.64031747600201,23.69029000066112
PtSe,2,bottom-up,P4/nmm,4/mmm,tetragonal,0.0,False,3.899270013378017,3.899158013378401,22.999467000000084
TaI4,2,bottom-up,P2_1/c,2/m,monoclinic,0.0,False,6.983313347199281,10.259083392699162,25.683757170826023
VBr5,2,bottom-up,P1,1,triclinic,0.0,False,7.330178784108879,11.015337859240264,25.802696466129976
MnTe2,2,bottom-up,P-3m1,-3m,trigonal,0.0,False,3.741411000206339,3.7413965977674697,22.641327000872433
TaS2,2,bottom-up,P-1,-1,triclinic,0.1392000000000002,False,12.217782227130954,12.219750255764461,23.73284956735006
Sn3Cl8,2,bottom-up,P1,1,triclinic,2.2038,True,6.372463692791065,6.744815180018915,33.17705087261304
ReBr3,2,bottom-up,P-3m1,-3m,trigonal,1.2480000000000002,False,10.682106140043372,10.682098784981186,26.85605800007737
Ge3Br8,2,bottom-up,P1,1,triclinic,1.4062999999999999,False,6.544294272340644,7.580608360591544,34.41302269200575
Ag18S11,2,bottom-up,P1,1,triclinic,0.0,False,4.434202181139248,3.955714617130859,52.59603700877095
Si3F8,2,bottom-up,P1,1,triclinic,3.8852,True,5.173997455059687,9.045762815629743,32.340155957193446
P9I2,2,bottom-up,P2_1/m,2/m,monoclinic,0.0,False,3.368917002586143,10.44195108285353,35.20006945614713
Sb2Se5,2,bottom-up,P2_1/c,2/m,monoclinic,0.6321999999999999,False,9.458478645144972,6.879875851190909,32.129844841867154
P4F,2,bottom-up,P-1,-1,triclinic,0.0,False,2.6339568985540898,8.267200830188456,34.68902065840139
Nb3F8,2,bottom-up,P3m1,3m,trigonal,0.2110000000000003,False,5.994626740253997,5.994636765953795,23.75506200061734
Mn2Cl5,2,bottom-up,P2/c,2/m,monoclinic,0.0,False,5.734542001406564,6.4649645546790895,25.784640924094195
Pb3Br8,2,bottom-up,P1,1,triclinic,1.1964000000000001,False,5.799928086959296,8.077461372386685,34.019638417683055
CoB3,2,bottom-up,P-6m2,-6m2,hexagonal,0.0,False,3.2498950130504216,3.249914281346048,25.1309120005683
VF5,2,bottom-up,P-1,-1,triclinic,2.6315,False,5.062821375524008,7.139164368585337,23.66057719997403
CrSe3,2,bottom-up,P2_1/c,2/m,monoclinic,0.37819999999999965,False,10.592503690068293,10.59860040914795,24.48214887503643
IrC4,2,bottom-up,P4/nbm,4/mmm,tetragonal,0.0,False,4.526960267697168,4.526967810822059,22.924308000076383
VI5,2,bottom-up,P-1,-1,triclinic,0.0,False,7.973770275495401,7.896622900950127,24.519365804260598
NiSn3,2,bottom-up,P4/mbm,4/mmm,tetragonal,0.0,False,6.2339514604060255,6.2332411271245345,25.86268702053664
ScC3,2,bottom-up,P-6m2,-6m2,hexagonal,0.0,False,4.50815946276409,4.507959028108903,20.000000000406363
AlN5,2,bottom-up,Pmc2_1,mm2,orthorhombic,0.0,False,4.340137991034345,12.016108361453949,26.806696935802368
PtN2,2,bottom-up,P-3m1,-3m,trigonal,0.0,False,5.602217443005639,5.595969053150879,22.859947727325128
VF3,2,bottom-up,P-31m,-3m,trigonal,2.2073,False,5.2999375020729,5.299947510674174,22.719179014039685
TlN5,2,bottom-up,Pmc2_1,mm2,orthorhombic,2.7206,False,4.638285940000117,9.129916840066869,26.806861000196758
B2S,2,bottom-up,P3,3,trigonal,0.05699999999999994,False,7.248235000000346,7.24823419349313,23.564510000001803
TeF,2,bottom-up,P-1,-1,triclinic,0.0,False,7.022473613924069,6.844423771046343,25.289687758700975
AsCl3,2,bottom-up,P2_1/c,2/m,monoclinic,3.6456999999999997,False,7.00983495455271,11.332046002282377,23.643093866677305
Pb3N4,2,bottom-up,Amm2,mm2,orthorhombic,0.13790000000000013,True,11.26657310072142,11.264658630860367,20.00000051286497
TaI4,2,bottom-up,P2_1/c,2/m,monoclinic,0.21880000000000033,False,6.6306133998966486,13.567763320047595,24.706979478799873
TaF5,2,bottom-up,P-1,-1,triclinic,5.882999999999999,False,4.8128072804882365,5.309169909663327,29.867577199867362
Tc2Cl7,2,bottom-up,P2_1,2,monoclinic,0.0,False,6.041585071907025,8.903095561442939,31.324333069786483
ZnF2,2,bottom-up,P-4m2,-42m,tetragonal,4.6756,True,6.582849899174876,6.575419051727766,26.753849823410857
TaBr4,2,bottom-up,P2_1/c,2/m,monoclinic,0.18520000000000003,True,6.787419364971972,17.889678403350327,24.645863145931227
In2S,2,bottom-up,P3,3,trigonal,0.7105999999999999,False,11.52185477934057,11.518322779649083,23.564503890381868
Ag18Te11,2,bottom-up,P1,1,triclinic,0.0,False,4.786400157820572,4.830323574158149,52.8201332918237
Si3As4,2,bottom-up,P1,1,triclinic,0.39380000000000015,True,7.806778325997671,9.404168118043032,20.191663151381487
Re2Cl7,2,bottom-up,P2_1,2,monoclinic,0.012199999999999989,False,6.06039532,8.86439662665942,31.320071116089746
PdN2,2,bottom-up,P4/mmm,4/mmm,tetragonal,0.0034999999999998366,False,3.4131098501103017,3.4131138548125626,23.530469000023896
Ge3N4,2,bottom-up,P-6m2,-6m2,hexagonal,1.7416999999999998,True,9.182253603907654,9.18224782791201,20.000000006555645
WSe3,2,bottom-up,P2_1/c,2/m,monoclinic,0.0,False,10.114965030182379,10.505684583220106,24.491828861477572
PF3,2,bottom-up,P2_1/c,2/m,monoclinic,4.4809,False,4.542809437156891,4.991067035276779,24.743957352630588
SbBr3,2,bottom-up,P2_1/c,2/m,monoclinic,2.4262999999999995,False,7.038116588890652,12.137169530210054,23.6087178705493
HfCl4,2,bottom-up,P1,1,triclinic,3.3813999999999997,False,6.112692587831353,6.652937070600156,23.454516116373686
BiCl3,2,bottom-up,P2_1/c,2/m,monoclinic,3.4332000000000003,False,6.997294837788132,11.945717780708462,23.613635247629613
BiI3,2,bottom-up,P2_1/c,2/m,monoclinic,2.4802000000000004,False,7.649848347090298,13.160945740000031,23.61180954149637
SbI3,2,bottom-up,P2_1/c,2/m,monoclinic,2.0987999999999998,False,7.501237234428463,12.986089700000003,23.610162646363122
PCl3,2,bottom-up,P2_1/c,2/m,monoclinic,3.7914000000000003,False,7.473462522282308,11.104641302534224,23.755232817311093
OsCl3,2,bottom-up,P-31m,-3m,trigonal,0.1533000000000002,False,5.980040050711011,5.980038070472997,22.75263900003609
TlAs,2,bottom-up,P-6m2,-6m2,hexagonal,0.0,False,4.565042000193317,4.565067907839487,20.000000000000625
InP,2,bottom-up,P-6m2,-6m2,hexagonal,0.3416999999999999,False,4.265376000040911,4.265378255751534,20.000000000275627
AlSb,2,bottom-up,P-6m2,-6m2,hexagonal,0.5455000000000001,False,4.457497409607177,4.455936738697298,20.000098004756843
LaPb3,2,bottom-up,P6/mmm,6/mmm,hexagonal,0.0,False,6.629493004810398,6.628777119693873,20.000000011082424
AsI3,2,bottom-up,P2_1/c,2/m,monoclinic,2.1016,False,7.165799296622142,12.364392140000648,23.612878236072415
BiF3,2,bottom-up,P2_1/c,2/m,monoclinic,3.5564,True,6.635322585274357,10.693810745128909,23.647185385759528
MoSe3,2,bottom-up,P2_1/c,2/m,monoclinic,0.0,False,10.139355940143735,10.509836598107754,24.479244302228178
SbCl3,2,bottom-up,P2_1/c,2/m,monoclinic,3.1483,False,7.006842462790109,11.99818515021423,23.61576000079742
PI3,2,bottom-up,P2_1/c,2/m,monoclinic,1.9214,False,7.551634552280236,12.252261200000598,23.63099041195827
I3N,2,bottom-up,P2_1/c,2/m,monoclinic,0.44910000000000005,False,7.389040749850188,11.1920750837549,23.595984251658148
Ge3F8,2,bottom-up,P1,1,triclinic,2.1155999999999997,False,5.131546026510703,9.733230297736007,32.2618373343012
La5Cl8,2,bottom-up,P2/m,2/m,monoclinic,0.0,False,4.1396052358283635,15.25987460894981,25.194094117618672
RuS2,2,bottom-up,P-3m1,-3m,trigonal,0.0,False,3.359218,3.3592178918767686,22.670328
ThSi2,2,bottom-up,P4/mmm,4/mmm,tetragonal,0.0,False,3.99844,3.99844,22.685916
CuBr2,2,bottom-up,P-4m2,-42m,tetragonal,0.0,False,3.61556275,3.61556275,23.530221
ZnTe,2,bottom-up,P4/nmm,4/mmm,tetragonal,0.7488000000000001,True,4.27162226,4.27162226,22.990012
NdSe3,2,bottom-up,P6/mmm,6/mmm,hexagonal,0.0,False,5.89114237,5.891141986489533,20.0
HgH,2,bottom-up,P6mm,6mm,hexagonal,0.0,False,3.1079993,3.1079996041964053,21.790565
GeF2,2,bottom-up,P-6m2,-6m2,hexagonal,2.8844999999999996,False,3.357118470000004,3.357118650731169,23.838
SiF2,2,bottom-up,P-6m2,-6m2,hexagonal,1.8157999999999994,False,3.2650560700000075,3.265056093344781,23.838
HfS,2,bottom-up,P4/nmm,4/mmm,tetragonal,0.0,False,4.30054283,4.30054283,22.865869
PN,2,bottom-up,P1,1,triclinic,1.7132,False,2.7149543032840096,4.0597384360478435,22.480014143958396
Ge3As4,2,bottom-up,C2,2,monoclinic,0.0,False,4.247635551502977,4.247635943677494,27.849825734410995
ZrCl4,2,bottom-up,P4/mmm,4/mmm,tetragonal,1.7069,False,5.088471,5.088471,23.891423
ThPb2,2,bottom-up,P4/mmm,4/mmm,tetragonal,0.0,False,4.162418,4.162418,22.685916
As4C3,2,bottom-up,C2,2,monoclinic,0.0,False,3.0583694682240408,3.058369395418578,27.985464966691637
SbTe,2,bottom-up,P4/nmm,4/mmm,tetragonal,0.0,False,4.463016952972283,4.463016916420663,23.274051002564228
AlS,2,bottom-up,P3m1,3m,trigonal,0.3007000000000004,False,3.60049663,3.6004966430479635,21.250951
Si3P4,2,bottom-up,C2,2,monoclinic,0.3326,False,3.6169008341600963,3.6169003983886534,28.161659971226147
Ag2Se,2,bottom-up,P6/mmm,6/mmm,hexagonal,0.0,False,4.682635,4.682633999458958,24.537695
Al2O3,2,bottom-up,P-3m1,-3m,trigonal,5.4648,False,2.890944,2.890944047702238,24.629234
AgSe2,2,bottom-up,P-4m2,mm2,tetragonal,0.0,False,2.89878,5.715739681244415,22.829887263509473
CeTe,2,bottom-up,P4/nmm,4/mmm,tetragonal,0.0,False,4.30134668,4.30134668,23.210158
BS,2,bottom-up,P3m1,3m,trigonal,0.7765999999999997,False,3.04673926,3.0467392705071386,21.250951
BaF2,2,bottom-up,Pmma,mmm,orthorhombic,4.5632,False,3.90083884,7.3564694,23.548695
Cd3Cu,2,bottom-up,P6/mmm,6/mmm,hexagonal,0.0,False,5.62255394,5.622553835884362,20.0
AgO,2,bottom-up,Pmc2_1,mm2,orthorhombic,0.4866999999999999,False,3.09413684,6.98062049,23.702834
Ba2Bi,2,bottom-up,Pmm2,mm2,orthorhombic,0.0,False,5.399091,5.262899,22.957399
PdI2,2,bottom-up,P-1,-1,triclinic,0.0,False,4.9648360191124885,4.516942496535055,24.984276110361034
SbCl4,2,bottom-up,P1,1,triclinic,0.4142999999999999,False,6.574049348608968,6.678655857849018,22.364847469238796
GeS,2,bottom-up,Pbcm,mmm,orthorhombic,0.47250000000000014,False,3.576883,11.076611,22.971359
BaBr2,2,bottom-up,Pmma,mmm,orthorhombic,2.6463,True,4.5864167,8.56310352,23.548695
LuAs2,2,bottom-up,C222,222,orthorhombic,0.0,False,3.15491,3.396796180040834,25.031709
PbF4,2,bottom-up,P4/nbm,4/mmm,tetragonal,1.7152000000000003,True,5.158039011725775,5.1483332681513545,22.42728357107434
WSe,2,bottom-up,P4/nmm,4/mmm,tetragonal,0.0,False,3.81419113,3.81419113,23.354627
CaF2,2,bottom-up,Pmma,mmm,orthorhombic,5.5943,True,3.41368196,6.26062511,23.548695
BeI2,2,bottom-up,C2,2,monoclinic,3.5406,True,5.87576,6.765287237668923,24.650223808176754
Zn3Au,2,bottom-up,P6/mmm,6/mmm,hexagonal,0.0,False,5.20864336,5.208643288437967,20.0
TiBr4,2,bottom-up,P4/mmm,4/mmm,tetragonal,0.20230000000000015,False,5.14805525,5.14805525,23.891423
PO2,2,bottom-up,P-3m1,-3m,trigonal,0.0,False,2.8954555085272853,2.901908269169961,21.973272483413414
AsBr5,2,bottom-up,Pmma,mmm,orthorhombic,0.0,False,3.89559414,15.75446095,23.858436