Formula,No. of Elements,Discovery Process,Space Group,Point Group,Crystal System,Band Gap,Is Gap Direct?,a,b,c
Nd3O2F5,3,top-down,Pm,m,monoclinic,3.2245,False,3.87731183,5.922559260989031,28.943072
LiFe2F5,3,top-down,Pmma,mmm,orthorhombic,2.8238000000000003,True,3.8299894,11.49568352,19.851265
CuN6,2,top-down,Pmn2_1,mm2,orthorhombic,0.0,False,3.09577808,9.10661702,28.92802692
HgCN2,3,top-down,P2_1/m,2/m,monoclinic,2.3099000000000003,False,5.575576467680362,7.01529676,20.622053686183595
Te2Mo,2,top-down,P2_1/m,2/m,monoclinic,0.0,False,3.49552016,6.37257355,24.139799
Ta3SiTe6,3,top-down,Pmc2_1,mm2,orthorhombic,0.0,False,6.42616865,11.58267748,23.83227
AlInI4,3,top-down,P2_1/m,2/m,monoclinic,2.8517,True,11.41719607,12.078062711881213,25.696419
AcSe3,2,top-down,P6/mmm,6/mmm,hexagonal,0.0,False,6.07621437,6.076213513458924,20.00082798
LiSb(PO3)4,4,top-down,P2/c,2/m,monoclinic,3.708,False,6.98342462383667,10.23431667023568,26.634471
Ca3(CoO3)2,3,top-down,P1,1,triclinic,1.2337,False,3.378573878268746,6.502876804113709,24.326333
Mn2P4O13,3,top-down,C2,2,monoclinic,0.8441999999999998,False,6.16465156,6.979197456724199,24.643318
WBr2,2,top-down,P4/mbm,4/mmm,tetragonal,2.4212,False,11.95636208,11.96172625,28.793164
CaSnS3,3,top-down,P2_1/c,2/m,monoclinic,1.7649999999999997,True,7.393834453947604,7.93901428,31.326699
Bi4I,2,top-down,P2/m,2/m,monoclinic,0.0,False,4.45502774,13.301288230097004,33.57647963899172
H3I3N2,3,top-down,P2_1/m,2/m,monoclinic,0.8353000000000002,False,6.32465072,7.52706684,31.53866
Li3V5O14,3,top-down,P31m,3m,trigonal,2.6802000000000006,False,8.75982915,8.757070049092892,23.093468
Li2Sn(PO3)4,4,top-down,P2,2,monoclinic,1.3024000000000004,False,7.066339106424665,9.229661680107602,26.026235
CuH2SO5,4,top-down,P-1,-1,triclinic,0.23380000000000045,False,4.935118110231213,7.6274510064453125,25.437803785555843
LiSb(PO3)4,4,top-down,P2_1,2,monoclinic,4.6192,False,7.03507774,8.24133841,30.242903
AlPI8,3,top-down,Pc,m,monoclinic,1.4734999999999996,True,10.58858411,17.6232515,25.837254
VPO5,3,top-down,P4/n,4/m,tetragonal,2.5101999999999993,False,6.00972934,6.00972934,25.788071
HgSO4,3,top-down,Pmn2_1,mm2,orthorhombic,2.2087999999999997,False,5.01689666,6.39965633,23.59867446
AgCN3O2,4,top-down,Pbcm,mmm,orthorhombic,2.7695999999999996,True,5.6979527,12.38455388,26.702549
BaH6C4O7,4,top-down,P-1,-1,triclinic,2.6620999999999997,False,8.17604903872225,8.857219040483688,26.852478
Mg(SbO2)2,3,top-down,P2_1/m,2/m,monoclinic,2.7725,True,3.247386093517648,10.15555209861505,23.861631
V3O2F5,3,top-down,Pmc2_1,mm2,orthorhombic,1.2172999999999998,False,4.87415375,5.09182733,27.61281964
Li5Zn4(BO3)4,4,top-down,P1,1,triclinic,0.04710000000000014,False,5.0291211746866065,5.045332473676658,29.476065
HAuO2,3,top-down,P-1,-1,triclinic,0.5254999999999996,False,4.061250980765291,5.414133306557995,23.357743
Cr3O8,2,top-down,C2/m,2/m,monoclinic,0.6189,False,5.122800346707326,5.12217222562055,26.242623
LiVF5,3,top-down,C2/m,2/m,monoclinic,2.1027000000000005,True,5.8401702571456315,5.840170459076626,25.065548
V2O5,2,top-down,P2_1,2,monoclinic,2.3522,True,5.55340039,10.160650089816835,24.069533
BiSbO5,3,top-down,P2_1/c,2/m,monoclinic,0.7378,True,7.8746936,11.12612597,23.199248
NaH3C2O5,4,top-down,P-1,-1,triclinic,3.1950000000000003,True,6.628475435592775,6.398591244261107,24.478132
V2Re2O11,3,top-down,P1,1,triclinic,1.1141,True,6.218473382269898,7.663007582543453,29.496406
V3H5O8,3,top-down,Cm,m,monoclinic,1.66,False,3.12263786,9.5591792448079,24.139907995874285
KTe2F9,3,top-down,P-1,-1,triclinic,4.359699999999999,False,4.57874895019325,8.979986705219833,28.342878
Cu(IO3)2,3,top-down,P2_1,2,monoclinic,0.5059999999999998,False,4.01435014,10.18197163,26.372583
VH2SeO5,4,top-down,P-1,-1,triclinic,2.311,False,6.246544487929971,6.418674388299748,26.007365
LiFeF4,3,top-down,P2/c,2/m,monoclinic,3.9948,False,6.467970247219447,4.9204666838088595,26.820419
Cu3Se2(ClO3)2,4,top-down,P-1,-1,triclinic,0.058399999999999785,False,6.14423649022615,8.598492228750278,26.162337
Zn(Sn2O3)2,3,top-down,Pmma,mmm,orthorhombic,0.000600000000000378,True,3.3111992,15.33485482,28.263396
KNbCl6,3,top-down,Pmn2_1,mm2,orthorhombic,2.1854999999999998,False,7.011201395384503,9.013529801551698,27.144762
La2Br5,2,top-down,P2_1/m,2/m,monoclinic,0.4123999999999999,False,4.19122157,15.79634186,25.461588
FeSeCl7,3,top-down,P1,1,triclinic,1.2459000000000002,True,6.260511864351179,8.061825843771954,28.601607
V2Ni(PO5)2,4,top-down,P2_1/c,2/m,monoclinic,2.8908,False,8.42954315,8.66400336,26.136147
VF4,2,top-down,P-3,-3,trigonal,1.9192999999999998,False,11.026287482361994,11.028089333272423,24.797902
CuB2(PbO3)2,4,top-down,P2_1/c,2/m,monoclinic,0.7778,False,6.38475633,8.2783412,27.211545
SrLaBr5,3,top-down,P2_1/m,2/m,monoclinic,3.2073,False,4.31216032,16.091167433078464,26.126544
Sn7(SBr5)2,3,top-down,P1,1,triclinic,1.9672000000000003,False,6.50962810660657,10.130679021885872,28.600486
CaV4O10,3,top-down,Pmm2,mm2,orthorhombic,0.5672999999999995,False,3.77380803,10.999428523463738,23.807386
Cu2WO4,3,top-down,P-1,-1,triclinic,1.6562999999999999,False,5.922231998780377,8.188775682679237,28.210514
Li2FeP4O13,4,top-down,P-1,-1,triclinic,0.047900000000000276,False,5.079472387692153,7.862169875695272,32.730783
PtCI2O,4,top-down,P2_1/c,2/m,monoclinic,1.5508000000000006,False,8.87791609,13.560805574476229,27.162075
LiFeF5,3,top-down,Pbcm,mmm,orthorhombic,0.8731999999999989,True,6.97945955,9.90324569,23.884762
AgMo3(PO7)2,4,top-down,P2_1/m,2/m,monoclinic,1.9611000000000005,False,6.49057019,10.60006748,27.365833
Li2MoP4O13,4,top-down,P-1,-1,triclinic,1.9258,False,5.06743839135769,7.964997222450986,32.409775
Sn4SF6,3,top-down,Pmn2_1,mm2,orthorhombic,3.2703,False,8.51291371,8.50821334,24.160862
CaAsH5O6,4,top-down,Pc,m,monoclinic,3.4655,True,5.832303148731481,6.1168211708948,28.079243
RbSb2F7,3,top-down,P2_1/c,2/m,monoclinic,4.3013,True,6.45099042,8.795990754598957,32.416713
Sr2FeCu2O7,4,top-down,Pmc2_1,mm2,orthorhombic,0.0,False,5.106734689364945,5.1347412466467794,29.598293
Ta3I7,2,top-down,Pmna,mmm,orthorhombic,0.9643000000000002,True,12.68673854,15.03083129,26.69322488
V3Co3(TeO8)2,4,top-down,P1,1,triclinic,0.46419999999999995,True,5.857112405373066,5.865473644809387,27.930175
UP2(PbO5)2,4,top-down,P-1,-1,triclinic,1.7185000000000001,False,6.699946164523117,11.879173314726305,23.762669
Sb(PO3)4,3,top-down,P2_1,2,monoclinic,0.25509999999999966,False,7.02059963,7.85480348,29.096465
Ti2ZnS5,3,top-down,Pmmn,mmm,orthorhombic,0.8880999999999997,False,4.79766785,13.521539973508775,23.201712
TiZnF5,3,top-down,P2_1/c,2/m,monoclinic,1.9528999999999996,True,7.62301251,7.75095138,28.871977
LiFe3(OF3)2,4,top-down,Pmn2_1,mm2,orthorhombic,1.2582,False,3.88854602,8.75578167,31.216092
MgH4(NO4)2,4,top-down,P2_1/c,2/m,monoclinic,3.5682000000000005,False,5.88520608,8.35208469,25.038706
TaTe2,2,top-down,C2/m,2/m,monoclinic,0.0,False,10.92864988,11.049244027575593,24.084812
SrPH3O4,4,top-down,P2_1/c,2/m,monoclinic,4.4393,True,7.02697924,8.17131909,27.231479
Nb2Zn2WO8,4,top-down,P-1,-1,triclinic,0.3268000000000001,False,5.397852249770736,5.972381340143727,28.767694
CuS4BrN4,4,top-down,P2_1/c,2/m,monoclinic,0.9320999999999999,False,6.627676799982012,11.97914333,29.00149
LiSn2P3O10,4,top-down,P2_1/m,2/m,monoclinic,3.0236,True,4.94192081,8.71307267,30.370762
Nb2Zn2FeO8,4,top-down,P2/c,2/m,monoclinic,2.3336,False,5.3230395316989885,6.031022663223659,28.589518
LiVF4,3,top-down,P-1,-1,triclinic,1.9367,False,3.9591323078465566,12.984042314079169,27.43898
Li2CrP4O13,4,top-down,P1,1,triclinic,0.6505000000000001,False,4.977607385370231,7.883015016272795,26.784795
Li3Sb2(PO4)3,4,top-down,P-3,-3,trigonal,3.3088,False,8.82852298,8.828522946593333,28.661246
K2HgCl4,3,top-down,P2_1/m,2/m,monoclinic,2.6433000000000004,False,7.87274285,9.05305849,26.316422
Te6MoBr3,3,top-down,P-1,-1,triclinic,1.1226,False,8.477224827880715,17.07186808473793,30.566166
Zn3P2,2,top-down,P-4m2,-42m,tetragonal,1.4536,True,8.29939897,8.29939897,28.068925
Hg4P2O7,3,top-down,P2/c,2/m,monoclinic,2.888,True,8.929709180441385,9.836279591913247,26.94499
Sn2P3O10,3,top-down,P2_1/m,2/m,monoclinic,0.0,False,4.92626349,8.73355968,29.387033
SnBrCl,3,top-down,P4/nmm,4/mmm,tetragonal,1.8881000000000001,True,6.14053699,6.14053699,26.468116
Pb3SO6,3,top-down,Pmma,mmm,orthorhombic,2.9438999999999997,True,5.71954417,10.06136662,25.398883
HoIO,3,top-down,P-3m1,-3m,trigonal,2.4528,True,3.89391336,3.8939133081288713,27.13963
LiSbO2,3,top-down,P2/c,2/m,monoclinic,2.6038,False,5.295713064761384,5.385203053189627,21.85444
KCrIO6,4,top-down,P2_1/c,2/m,monoclinic,2.6847,False,4.56734096,14.21434003563309,27.911047495288603
AgBi2F12,3,top-down,P-1,-1,triclinic,0.36379999999999946,False,5.149232593376005,5.605613429202235,28.061821
In(IO3)3,3,top-down,P-3,-3,trigonal,3.5169000000000006,False,9.84084778,9.840847319053049,23.080881
YI3,2,top-down,P-31m,-3m,trigonal,2.8542999999999994,False,7.510525820000002,7.510525980154152,23.545523
Nb4IrSe10,3,top-down,P-1,-1,triclinic,0.0,False,6.075910609710154,9.303536031635277,23.406478
LiV(SO4)3,4,top-down,P-1,-1,triclinic,1.1299000000000001,False,7.650202773858232,8.99459174790968,26.277647
YCrF5,3,top-down,Pmmm,mmm,orthorhombic,0.0,False,4.44318436,8.3815554,24.388318
LiNiPO4,4,top-down,P2_1,2,monoclinic,2.5329999999999995,False,5.13521978,8.4709591,27.207246
LiWF6,3,top-down,P2_1/c,2/m,monoclinic,3.4707000000000003,False,5.0048702,10.133983455555022,27.092546
Tm(HO)3,3,top-down,P2_1/c,2/m,monoclinic,4.3336,False,6.02570852,10.83897701,24.367563
Li2Cr(PO4)2,4,top-down,P-3,-3,trigonal,0.0,False,4.845462532447863,4.857065481069238,29.658575002844668
VZnF5,3,top-down,P-1,-1,triclinic,1.1654,False,7.503190499639454,7.833817224702531,20.404759
CeGe5,2,top-down,Pmmm,mmm,orthorhombic,0.0,False,3.4551894,6.33142662,22.763085
LuPS4,3,top-down,P2_1/c,2/m,monoclinic,2.2699999999999996,True,6.45239801,12.49793632,25.128897
NaH4BrO2,4,top-down,P2_1/c,2/m,monoclinic,3.8636,False,6.55352820527215,10.11487916,24.383046053835724
MgW4O9,3,top-down,P4/n,4/m,tetragonal,1.7812999999999999,True,9.20563871468986,9.206733536177847,26.528193
KBiF4,3,top-down,Cm,m,monoclinic,0.8259000000000003,False,4.29763102,4.186798366546791,32.482668
VF4,2,top-down,Pmmn,mmm,orthorhombic,2.3159,True,7.43714899,7.57333341,23.484716
Hg3Se3O10,3,top-down,P2_1,2,monoclinic,2.3436,True,5.57500112,11.374290918844457,30.467217
ZnP2WO7,4,top-down,P-1,-1,triclinic,1.4007999999999998,False,5.770145085492712,6.545284868196443,30.224699
RbV3(SeO6)2,4,top-down,P3,3,trigonal,2.3318000000000003,False,7.14105516,7.141055987782213,25.24345
HoBiO3,3,top-down,P-3,-3,trigonal,3.3388,False,6.03159468,6.031593844972492,25.183875
FeP4,2,top-down,P2_1/c,2/m,monoclinic,0.1277999999999999,False,6.14930327,11.13866023,24.453123
Te2OsCl12,3,top-down,P-1,-1,triclinic,0.0,False,6.488654738139849,6.898634487911821,28.62267989611888
NaSbMoO5,4,top-down,P2_1/c,2/m,monoclinic,3.4459,False,5.59519078,10.89725812,27.633572
Cr2O5,2,top-down,Pmmn,mmm,orthorhombic,0.6681000000000008,False,3.71718135,10.62082182,24.13305
MgTi4O9,3,top-down,P4/n,4/m,tetragonal,2.7487999999999997,False,8.50069191,8.50069191,26.165499
Mg(HO)2,3,top-down,P-3m1,-3m,trigonal,3.5454,True,3.15891827,3.1589175719080345,24.029001
PbSeO4,3,top-down,P2_1/c,2/m,monoclinic,3.4876,False,7.28585633,8.91099429,24.145796
TaTe5Pt,3,top-down,Pmma,mmm,orthorhombic,0.0,False,3.78291967,15.61777579,24.518961
CuH2SeO5,4,top-down,P-1,-1,triclinic,0.0,False,5.065236035978861,10.00182688335335,24.107494
Nb2SiTe4,3,top-down,Pbam,mmm,orthorhombic,0.5205000000000001,False,6.42628305,7.96084344,23.785815
Ge5(Te4As)2,3,top-down,P-3m1,-3m,trigonal,0.3228,False,4.20763943,4.207640356165073,64.274862
Bi2S3,2,top-down,P2_1/m,2/m,monoclinic,1.4830999999999999,False,4.03143858,9.47647452,24.948012
Li2Cu2F7,3,top-down,P2_1,2,monoclinic,0.0,False,3.8309204419415153,5.2303415752490325,29.469277
VSb(PO4)2,4,top-down,P2_1/m,2/m,monoclinic,1.8883999999999999,True,4.87938179,5.95198005,31.241379
ZnSnO2,3,top-down,P-1,-1,triclinic,1.9708999999999999,False,3.3944756444205573,7.947136911748588,26.334238
Mn2OF4,3,top-down,Pmn2_1,mm2,orthorhombic,0.6672000000000002,False,3.05254051,12.07691971,22.802249
Sr2Cu2TeO7,4,top-down,Pmc2_1,mm2,orthorhombic,0.0,False,5.122613870756819,5.190453716841216,30.001916
V3(HO2)4,3,top-down,Cm,m,monoclinic,1.4354999999999998,False,3.88283596,8.73147378972219,26.79566
TeAuI,3,top-down,P2_1/c,2/m,monoclinic,1.0945,False,7.29083613,7.72646803,24.72051
TeCF2,3,top-down,P-1,-1,triclinic,1.6149,False,6.997675164769028,7.322261768037868,24.142991631793628
Ta2Te4Br10O,4,top-down,P-1,-1,triclinic,1.0839000000000003,False,8.873312690671998,10.885791266876216,25.069232
Li2Fe(PO3)4,4,top-down,P-1,-1,triclinic,4.1367,False,5.300729152825537,7.188771545908312,27.561819
ZnCr4O9,3,top-down,P4/n,4/m,tetragonal,0.7473999999999998,False,8.42501915,8.42501915,25.463914
KBi(PS3)2,4,top-down,P2_1,2,monoclinic,1.7368000000000001,False,6.817149822076344,7.1895444,29.278027
CrAg(PS3)2,4,top-down,P2/c,2/m,monoclinic,0.9680999999999997,False,5.95272472,10.62874114,23.750879
Li3Sb2(PO4)3,4,top-down,C2,2,monoclinic,3.9374000000000002,False,8.307639161150476,8.307639210168205,25.624285
PdI2,2,top-down,P2_1/c,2/m,monoclinic,1.1895000000000002,False,6.99733575,8.50919069,25.961925
ZnCrF5,3,top-down,P2/c,2/m,monoclinic,3.4739,False,6.962639079749144,5.694969434399488,23.821763
CaH4(ClO)2,4,top-down,Pnc2,mm2,orthorhombic,5.0419,False,5.71018969,7.37467349,25.201808
Na(NO)2,3,top-down,P1,1,triclinic,0.0,False,3.706132333598847,3.7228364831642358,27.41673
ZnCu(GeO3)2,4,top-down,P2_1/c,2/m,monoclinic,0.028999999999999915,True,5.257846742297054,9.64664245,28.570113
SbO2,2,top-down,P1,1,triclinic,0.7075,False,6.359036522492757,7.464632019171531,33.023735
IO2,2,top-down,P2_1/c,2/m,monoclinic,1.7444000000000002,False,6.91218874,8.27438851,24.518267
Mo2O5,2,top-down,Pmmn,mmm,orthorhombic,1.5426000000000002,True,3.95721579,11.566754608431527,25.358914
LiHSO4,4,top-down,P2_1/c,2/m,monoclinic,5.3467,True,7.26817002,8.27497704,26.720026
ZnH4(ClO3)2,4,top-down,P2_1/c,2/m,monoclinic,2.8222,False,6.33372577,8.50071530453642,21.748201
CuSeO3,3,top-down,P2_1/c,2/m,monoclinic,0.1344000000000003,False,6.12848981,12.37304751,22.104064
Pb3SO6,3,top-down,P-1,-1,triclinic,2.773,False,5.822155792981865,7.10148439520804,28.407918
CuPO3,3,top-down,P2_1/c,2/m,monoclinic,1.2149999999999999,True,4.74015688,12.14054259,27.977278
Li2FeP2O7,4,top-down,P-42_1m,-42m,tetragonal,3.9122,False,7.79798143,7.79798143,24.73417
Ca2MgSi2O7,4,top-down,P-42_1m,-42m,tetragonal,3.1476000000000006,True,8.63098390918325,8.630983014201778,18.17836
Sb2O3,2,top-down,Pmma,mmm,orthorhombic,1.5135999999999998,True,3.3608858,15.62807267,24.810649
ZnNi2S5,3,top-down,P2_1/m,2/m,monoclinic,0.0,False,4.18985643,12.896697304762975,21.10285
Tl2SO3,3,top-down,P2_1/c,2/m,monoclinic,2.9669999999999996,False,6.69789124,11.246975489352673,23.363984
Mn4ZnO9,3,top-down,P4/n,4/m,tetragonal,0.0,False,8.540501709251512,8.54096254825651,24.336225771571673
Zn2(PS3)3,3,top-down,C2/m,2/m,monoclinic,1.7018,True,10.69925586,10.593171952722304,24.549138
CuMoF6,3,top-down,P-1,-1,triclinic,0.0,False,5.045872243510766,5.426891957151017,23.685121
Tl2S,2,top-down,P3,3,trigonal,1.4621,False,12.211621160000082,12.211620904723945,23.381968
LiV2NiO6,4,top-down,P2/c,2/m,monoclinic,1.3546000000000005,False,5.7316391790981385,9.802683930752375,21.309303
CuTe2O5,3,top-down,P2_1/c,2/m,monoclinic,0.4114,False,7.54057374,8.98887161,26.558725
AlBiCl6,3,top-down,P2_1/c,2/m,monoclinic,3.998,False,10.9872403,17.62234996048416,24.640342
CeP3H8O7,4,top-down,P-1,-1,triclinic,0.31189999999999996,False,7.080632446440249,9.585398625015028,28.178283
ZnFeF5,3,top-down,P2/c,2/m,monoclinic,3.2269,True,7.264930016755191,5.431333747823437,23.767919
VOF3,3,top-down,P2_1/c,2/m,monoclinic,3.5795999999999992,False,5.0593362,9.38107959,24.573827
V4S9Br4,3,top-down,P4/nmm,4/mmm,tetragonal,0.6503000000000001,False,10.84179367,10.84179367,25.02459
ReBiO5,3,top-down,P2_1/c,2/m,monoclinic,2.6674999999999995,False,9.23386267,12.07790109,23.675125
AlH4(SeO4)2,4,top-down,P2_1/c,2/m,monoclinic,0.0,False,5.36523237,9.491967416591388,25.953640071019766
Ag2WS4,3,top-down,P2_1/m,2/m,monoclinic,0.9264000000000001,False,7.35213198139322,7.25824346,23.112633
ZnC2(SN)2,4,top-down,P-1,-1,triclinic,3.8952,False,7.705300776985233,7.819781555809274,29.380446
VSeO4,3,top-down,P2_1/c,2/m,monoclinic,2.6831000000000005,False,7.90974278,9.72227111,23.427207
Li3BiH8O7,4,top-down,P-1,-1,triclinic,3.6282,False,6.295407795899702,6.882857924021123,27.551648
CaSnO2,3,top-down,P-1,-1,triclinic,0.37360000000000015,False,3.3056575510450363,8.30384415050522,28.232588
BaTl(WO3)2,4,top-down,P1,1,triclinic,0.0,False,3.8916644903657405,3.8857634340235148,28.336523
Yb2Te5O13,3,top-down,P-1,-1,triclinic,1.9871,False,7.100825654870264,8.910958569279252,29.184486
Tl2Ge2Se5,3,top-down,C2,2,monoclinic,2.0827999999999998,False,10.995023113959972,10.995022743012974,25.802324
NdVSb3,3,top-down,Pbcm,mmm,orthorhombic,0.0,False,5.947478769507614,7.999434499863837,28.660411
VO2F,3,top-down,P2_1/c,2/m,monoclinic,2.7241999999999997,True,8.83324362,12.21046861,25.329052
AuSeClO3,4,top-down,P-1,-1,triclinic,1.4936000000000007,False,9.646209731953284,10.441576447074103,23.096642
Hg2TeBr3,3,top-down,P2_1/c,2/m,monoclinic,2.2979999999999996,False,9.95652552,12.84383601,24.589118
PbSeO3,3,top-down,P2_1/c,2/m,monoclinic,3.3704,False,8.07528192,8.83121779,27.177214
LiV2F9,3,top-down,P-1,-1,triclinic,2.0453,False,8.16300081955554,10.658949197483675,22.6642600128701
V3Se2ClO8,4,top-down,P-1,-1,triclinic,1.6570999999999998,False,6.657124957409633,9.722078938403918,26.083701
LaPb6ClO7,4,top-down,C2/m,2/m,monoclinic,2.2017,True,8.15237929,10.065139128513739,27.604129
Li2Cr4O13,3,top-down,P2_12_12,222,orthorhombic,1.6432000000000002,False,7.68229149,8.54730344,29.90357
AgRuF7,3,top-down,P2_1/c,2/m,monoclinic,0.0,False,5.52855637,11.38361743,28.352984
Au3F8,2,top-down,P2_1/c,2/m,monoclinic,0.6220999999999997,False,7.64344836,10.7334486,23.417007
Ag2PdCl4,3,top-down,Pmna,mmm,orthorhombic,1.2462,False,9.09952949,8.11595422,24.653048
Al2CuCl8,3,top-down,P2_1/c,2/m,monoclinic,0.5573999999999995,True,7.15174439,12.10520822,24.843616
VZnF5,3,top-down,P2_1/c,2/m,monoclinic,1.0129000000000001,True,7.58584475,7.64502531,28.743294
CaGe2WO6,4,top-down,P2_1/c,2/m,monoclinic,1.4237999999999997,False,5.63709846,8.77910127,30.418706
MoBr2,2,top-down,P4/mbm,4/mmm,tetragonal,2.0481000000000003,False,11.92942658,11.93347639,28.91679
Tl3BiI6,3,top-down,P2_1/c,2/m,monoclinic,2.4696000000000002,False,8.98616023,13.67938918,31.545128
Sc6C2I11,3,top-down,P-1,-1,triclinic,0.3861999999999999,False,9.009156959463354,16.13055826861961,27.744233
Ge3Bi2O9,3,top-down,P-6,-6,hexagonal,3.9257999999999997,False,7.27951416,7.2795129787456805,25.496239
Fe3S4,2,top-down,P-6m2,-6m2,hexagonal,0.0,False,3.08186113,3.081861777438392,29.22144736
MgN8,2,top-down,P4/m,4/m,tetragonal,0.6129999999999995,False,6.2574741,6.2574741,24.62689561
LaTe3,2,top-down,P4/nmm,4/mmm,tetragonal,0.0,False,4.43692452,4.44024989,29.55819696
ScAg(PSe3)2,4,top-down,P312,32,trigonal,1.6673,False,6.50072029,6.500720327305174,23.58754373
Pt(NCl)4,3,top-down,P4/mmm,4/mmm,tetragonal,0.0,False,5.98605335,5.98605335,24.77030074
ThTe3,2,top-down,Pmmn,mmm,orthorhombic,0.6487999999999999,False,4.41464618,6.256664138315046,27.21023158847582
SnP3,2,top-down,P-3m1,-3m,trigonal,0.4605999999999999,False,7.17586934,7.1758698399756335,22.43209088
Sc2C,2,top-down,P-3m1,-3m,trigonal,0.0,False,3.32429822,3.3242974258975533,21.98922132
WO3,2,top-down,P3m1,3m,trigonal,3.2216,False,6.08457971,6.08457960224658,18.96919268
Pb2CO6,3,top-down,P3m1,3m,trigonal,0.0,False,4.87326415,4.873263225331294,25.08972006
ScCl3,2,top-down,P-31m,-3m,trigonal,3.8438,False,6.36879108,6.3687916508212385,22.75669399
MnOF,3,top-down,Pmmm,mmm,orthorhombic,0.0,False,2.9991473,6.23950809,22.35783842