Formula,No. of Elements,Discovery Process,Space Group,Point Group,Crystal System,Band Gap,Is Gap Direct?,a,b,c
LiFeBO4,4,top-down,P2_1/m,2/m,monoclinic,0.0019999999999997797,False,4.574838012289769,5.934475967502111,22.539216214602835
PtCl2,2,top-down,P-1,-1,triclinic,0.03249999999999975,False,4.686512817625881,4.413628369545083,24.768416
Co(HO)2,3,top-down,C2,2,monoclinic,1.839,False,3.195598754700989,3.1955994343819274,23.985592
LiNiPO4,4,top-down,P2,2,monoclinic,2.0332000000000003,False,5.888154746686616,5.789687776909766,22.04742984
SbN,2,top-down,Pmn2_1,mm2,orthorhombic,1.854,False,3.3285654107246216,3.907770489712308,22.500902786142706
SbI3,2,top-down,P2_1/c,2/m,monoclinic,2.109,False,8.54351932,11.03004794,24.734786
AgClO2,3,top-down,P1,1,triclinic,0.0,False,6.174167629135978,6.7270777742929715,20.402633397842344
LiCu2F5,3,top-down,Pmm2,mm2,orthorhombic,0.0,False,3.761955161271918,10.514963356556969,21.61151
Rb(SbSe2)2,3,top-down,P-1,-1,triclinic,1.5727,False,6.337923207129373,7.140822470147725,28.74437
TaF5,2,top-down,Pmmm,mmm,orthorhombic,3.4398000000000004,False,3.7179744,4.39432856,23.745806
CrO3,2,top-down,P31m,3m,trigonal,0.7536,True,5.49940625,5.499406354128283,23.19871
YGaI,3,top-down,P-3m1,-3m,trigonal,0.0,False,4.18727493,4.187274221766081,28.07690925
LiCoPO4,4,top-down,P2_1/m,2/m,monoclinic,2.7095000000000002,True,4.73369172,6.18002693,24.434064
NaB(HO)4,4,top-down,P-1,-1,triclinic,4.6085,True,5.837553536190049,6.105731456520323,25.179295
Nb(SeBr)2,3,top-down,C2/m,2/m,monoclinic,1.2323999999999997,False,6.718443165370861,6.772007008080452,24.51078873945698
V2ZnO6,3,top-down,C2/m,2/m,monoclinic,3.0406,False,3.62279706,9.097661365284866,23.778147
MgSnO2,3,top-down,P-1,-1,triclinic,1.6204999999999998,False,3.321580616306712,8.386539048955216,25.837091
Sc7(CCl5)2,3,top-down,C2/m,2/m,monoclinic,0.0,False,3.49600058,13.769538315230763,27.60814130943582
GePbS3,3,top-down,P2_1/c,2/m,monoclinic,2.2182,True,6.90246712,10.3730421,27.265571
MnSbS2Br,4,top-down,P2/m,2/m,monoclinic,0.24619999999999997,True,3.72932612,10.075043987907579,24.046341002240794
SrTeO3,3,top-down,P2_1/c,2/m,monoclinic,3.9009,False,6.96651384,8.433865542669844,24.689325091915027
Sr2FeBrO3,4,top-down,P4/nmm,4/mmm,tetragonal,1.0727,False,3.96158062,3.96158062,32.726041
TeHO3,3,top-down,P2_1,2,monoclinic,2.5196000000000005,False,4.652355323077829,8.068045256118289,25.160277538584815
SnF3,2,top-down,P1,1,triclinic,2.4551,False,4.150965588950199,6.702522068658659,24.037871
VCuO4,3,top-down,Pmma,mmm,orthorhombic,0.2903000000000002,False,5.63416184,6.21308928,22.555755
Pb(BrO3)2,3,top-down,P2/c,2/m,monoclinic,3.1225999999999994,True,5.597498520031605,6.190857910644342,26.763106
Ho2CF2,3,top-down,P-3m1,-3m,trigonal,1.1136,False,3.54412595,3.5441261555335934,25.38953314
CuTe2I,3,top-down,P222_1,222,orthorhombic,0.8589,False,5.19166455,8.49209971,23.272398
AsPO4,3,top-down,Pmn2_1,mm2,orthorhombic,4.162100000000001,True,5.10707674,7.64343084,25.405903
MnBiS2Cl,4,top-down,Pmc2_1,mm2,orthorhombic,0.23019999999999996,False,3.73111141,10.61277605,25.440546
Sr2Cu2SnO7,4,top-down,Pmc2_1,mm2,orthorhombic,0.0,False,5.163846988419743,5.187770630102358,29.949019
SnP2O7,3,top-down,P-1,-1,triclinic,2.0933,True,6.472583885529014,6.230794208227801,24.876554
Cu(BiO2)2,3,top-down,P42_12,422,tetragonal,0.06469999999999976,False,8.11062658,8.11062658,21.20902079
SnF4,2,top-down,P2/c,2/m,monoclinic,3.3157,True,4.948122725849349,4.945112184544266,17.716221036612076
LiAg(CO2)2,4,top-down,Pc,m,monoclinic,2.5835000000000004,False,5.55036755,10.03967853,22.300201
Te2Pd,2,top-down,P-3m1,-3m,trigonal,0.18080000000000007,False,4.0076596,4.007659536502514,22.71947
AgBi(PS3)2,4,top-down,P-1,-1,triclinic,1.4728999999999997,True,6.520134648249441,11.724189448833089,24.461332
NbTe4Ir,3,top-down,P2_1/m,2/m,monoclinic,0.028699999999999948,False,3.79469737,12.58649463,24.000144
Li(CoO2)2,3,top-down,P3m1,3m,trigonal,0.0,False,2.94863621,2.948636598419403,26.608436
Ag2CN2,3,top-down,P2_1/c,2/m,monoclinic,1.5689000000000002,True,6.01457639,6.54089149,25.774879
PW4Cl11,3,top-down,Pmmn,mmm,orthorhombic,0.6511,True,9.92816526,11.44513561,26.196638
Mn3CuO8,3,top-down,P-3m1,-3m,trigonal,0.006700000000000372,False,5.8245498549151735,5.824650076592858,21.933191
BaTl(MoO3)2,4,top-down,Pm,m,monoclinic,0.0,False,3.8983645254019508,3.9074502974743686,38.711833
Ca(SbO2)2,3,top-down,Pmc2_1,mm2,orthorhombic,1.6827,False,3.1713588621738658,9.953405198269575,24.31155749214811
W(ClO)2,3,top-down,Pmc2_1,mm2,orthorhombic,1.6973000000000003,False,3.86134586,7.70214422,24.642791
CuHClO,4,top-down,P2_1/c,2/m,monoclinic,0.019099999999999895,False,5.463989252718659,6.68065899,21.216091522483715
TaS3,2,top-down,P2_1/m,2/m,monoclinic,0.0,False,3.36843832,15.054345519011909,27.447061547423804
CdBiClO2,4,top-down,P2_1/m,2/m,monoclinic,3.1710000000000003,False,4.27341831,7.545281408168885,25.124860743895905
SrLaCl5,3,top-down,P2_1/m,2/m,monoclinic,3.702,False,4.26018174,15.14557199,24.716146
Li2UI6,3,top-down,P-31m,-3m,trigonal,0.19320000000000004,False,7.36334045,7.363340539695644,23.471756
Eu(AlCl4)2,3,top-down,P2/c,2/m,monoclinic,1.658,False,6.933701,12.51189302,24.935753
W(OF)2,3,top-down,Pmc2_1,mm2,orthorhombic,1.6176999999999992,False,3.87549054,7.704986,23.759084
Al2O3,2,top-down,P321,32,trigonal,4.8346,False,4.98862946,4.98862969172463,24.184471
Li2SO4,3,top-down,Pmma,mmm,orthorhombic,4.435099999999999,True,5.8656383,8.17942409,22.412351
NaV2O5,3,top-down,P2_1/m,2/m,monoclinic,0.6738,False,3.70838187,9.95288073,26.592229
Sn(PS3)2,3,top-down,P312,32,trigonal,1.4967000000000001,False,6.066393930000001,6.0663938085213305,23.37358
BiF3,2,top-down,P-6m2,-6m2,hexagonal,1.795,False,4.22753289,4.227532317590999,22.93464867
CuSbS2,3,top-down,Pmc2_1,mm2,orthorhombic,0.37329999999999997,True,3.76808052,6.1200561,25.433272
CuH4(IO4)2,4,top-down,P2_1/c,2/m,monoclinic,0.8480000000000003,False,4.58737098,11.42655849,26.29295
FeHO2,3,top-down,Pmn2_1,mm2,orthorhombic,1.7551999999999999,False,2.96866365,5.20260824,25.989317
MnP2O7,3,top-down,P-1,-1,triclinic,0.0,False,5.206460838398723,6.251298891127615,29.023255
CaP(HO3)2,4,top-down,Pc,m,monoclinic,0.2010999999999994,False,5.41724323756761,5.797369059154074,28.15001058
TiO2,2,top-down,P2_1/m,2/m,monoclinic,1.7363999999999997,False,3.88134121,6.16988044,28.944856
MnCo3O8,3,top-down,P-3m1,-3m,trigonal,0.0,False,5.86301466,5.863014640666067,21.887775
CdInGaS4,4,top-down,P3m1,3m,trigonal,0.0,False,4.01378898,4.01378893487139,30.159662
LiBiB2O5,4,top-down,P2_1,2,monoclinic,2.9602999999999997,False,4.05779635,5.27844469,27.462976
Te(WO4)2,3,top-down,P2/c,2/m,monoclinic,0.0,False,5.404986930734812,10.106538561891053,26.900998
EuBrO,3,top-down,P4/nmm,4/mmm,tetragonal,0.0,False,3.89956117,3.89956117,25.661787
Sc5CCl8,3,top-down,P2/m,2/m,monoclinic,0.0,False,3.52412576,11.98538957,25.525049
MnF4,2,top-down,P2_1/c,2/m,monoclinic,0.032600000000000406,True,4.66242271,5.33268799,23.110676
Ag(AuS)2,3,top-down,Pc,m,monoclinic,0.0,False,4.42621226,7.095198746660521,23.398787147135394
Lu(HO)3,3,top-down,P2_1/c,2/m,monoclinic,4.2678,True,6.01905853,10.44911727,24.318776
MgGe2WO6,4,top-down,P2/c,2/m,monoclinic,2.2462999999999997,False,5.02779646,8.79911634,24.873537
GaH3NF3,4,top-down,Pma2,mm2,orthorhombic,2.5984,False,5.51635532,5.49314781,23.39613213
MnSe,2,top-down,P4/nmm,4/mmm,tetragonal,0.0,False,3.59380643,3.59380643,23.119218
Sr3Cr2S2O5,4,top-down,P4/mmm,4/mmm,tetragonal,0.0,False,3.9432908,3.9432908,28.830279
PdSeO3,3,top-down,C2/m,2/m,monoclinic,0.4523999999999999,True,4.907393909947183,4.90739425040518,24.371018
Sr2FeClO3,4,top-down,P4/nmm,4/mmm,tetragonal,1.0212,False,3.93853282,3.93853282,32.304603
Y3I7O,3,top-down,P3m1,3m,trigonal,2.5761000000000003,True,8.299701252346072,8.299321808518837,23.609251822860788
TlTe3Pt2,3,top-down,P-3m1,-3m,trigonal,0.9822000000000002,False,7.95189903,7.9518993086056176,23.770551
TlBS2,3,top-down,P-3m1,-3m,trigonal,1.8056,False,10.009513,10.009512909406006,22.76016276
Li2Ta2(OF2)3,4,top-down,C2,2,monoclinic,3.8053,False,5.722769730873266,5.722769989236621,24.7400212406503
Si2Ru,2,top-down,P4/mmm,4/mmm,tetragonal,0.0,False,2.83893768,2.83893768,22.951059
Ba(AlCl4)2,3,top-down,P2/c,2/m,monoclinic,5.5913,True,7.09867394,12.45915975,25.349618
SbOF,3,top-down,P2_1/c,2/m,monoclinic,3.4236999999999997,False,6.3994675122919205,4.59439814,22.27582502922192
LiFeF4,3,top-down,Pmc2_1,mm2,orthorhombic,3.2137000000000002,False,3.0243758,6.38234383,26.188611
GdOF,3,top-down,P4/nmm,4/mmm,tetragonal,3.4894000000000003,False,4.22178065,4.22178065,24.10049026
PrGe5,2,top-down,Pmmm,mmm,orthorhombic,0.0,False,3.56791132,6.60686483,23.394488
VHgO3,3,top-down,P-1,-1,triclinic,2.4189,False,3.661051539178931,9.945873342946802,24.424388924919448
Li5NiOF5,4,top-down,P3m1,3m,trigonal,1.7050999999999998,False,3.29373443,3.290485143761699,27.642657069425645
KH3C2O3,4,top-down,P-1,-1,triclinic,4.6766,True,3.7624619886005943,5.5705377539354375,28.872335240450376
V4O9,2,top-down,P4/n,4/m,tetragonal,0.0038000000000000256,False,8.34383569,8.34383569,24.323978
NaHO,3,top-down,Pmn2_1,mm2,orthorhombic,2.8337999999999997,False,3.35074804,3.4060906,24.497505
Te,1,top-down,P4/mmm,mmm,tetragonal,0.0,False,2.97969303,6.14176555,19.98526138
MgV2S5,3,top-down,Pmmn,mmm,orthorhombic,0.7000000000000002,False,4.71855891,13.73619219,25.064414
TaNb2Zn2O8,4,top-down,P-1,-1,triclinic,0.0,False,5.294262628527602,6.067467203184614,28.675208
Nb2Ge2O7,3,top-down,Pmc2_1,mm2,orthorhombic,1.4946,False,3.95325259,5.74139965,35.321769
ZnFe2S5,3,top-down,Pmmn,mmm,orthorhombic,0.0,False,3.55616724,13.379361438318334,23.91487153960331
YBiO3,3,top-down,P-3,-3,trigonal,3.3883,False,6.104308640000034,6.104308907199439,25.768545
Co(CO3)2,3,top-down,P2_1/c,2/m,monoclinic,0.7122000000000002,False,6.83427895,7.39397181,22.681029
BaZnF4,3,top-down,Pmn2_1,mm2,orthorhombic,4.4744,False,4.13146036,5.91436415,26.526453
Nb2Zn2CrO8,4,top-down,Pc,m,monoclinic,0.9119999999999999,False,5.318581851308429,6.08401925481655,27.04613845651191
ThTeO,3,top-down,P4/nmm,4/mmm,tetragonal,0.8962999999999999,True,4.04048292,4.04048292,25.610781
Sn2P3O10,3,top-down,C2,2,monoclinic,0.012100000000000222,True,7.427484046737434,7.427484067863399,24.506305
ZnWO4,3,top-down,P2/c,2/m,monoclinic,3.8625,False,4.86990699378747,4.850182141228884,24.457244
CaTi(GeO3)2,4,top-down,P2_1/c,2/m,monoclinic,2.4080000000000004,False,5.3988222388174245,8.65632868,30.027560818062174
Mn(SbS2)2,3,top-down,Pmc2_1,mm2,orthorhombic,0.0,False,3.66040868,10.93836219,28.995662
CuTeO3,3,top-down,P2_1/c,2/m,monoclinic,0.0019000000000000128,True,7.558897742317447,9.31410395,21.859815294349513
Nb2Zn2SbO8,4,top-down,Pc,m,monoclinic,0.0,False,5.500039232146193,5.9800865137756105,29.063492
Sr2Cu2MoO7,4,top-down,Pm,m,monoclinic,0.0,False,5.263774085494156,5.2665613634708315,29.590318148720247
ZrBrO,3,top-down,P-3m1,-3m,trigonal,0.0,False,3.7446612,3.7446610027489284,26.313777
ScClO,3,top-down,P4/nmm,4/mmm,tetragonal,4.0804,False,3.54429696,3.54429696,25.145373
LiIn(IO3)4,4,top-down,P-1,-1,triclinic,3.1383,False,4.808262511146455,6.493040184896318,27.114479991734658
CeSiI,3,top-down,P-3m1,-3m,trigonal,0.0,False,4.14989226,4.149892415773362,28.195095
ZrS3,2,top-down,Pmmn,mmm,orthorhombic,1.1275,False,3.65475265,5.18833979,25.95012
NaMgAs,3,top-down,P4/nmm,4/mmm,tetragonal,0.0,False,4.63290613,4.63290613,29.123091
MgCl2,2,top-down,Pmma,mmm,orthorhombic,4.574800000000001,True,3.62196809,6.26856356,23.548683
BiBr3,2,top-down,P2_1/c,2/m,monoclinic,2.9482,False,7.20420821040618,12.39166287,23.51881557876565
Zn(SbO2)2,3,top-down,Pmma,mmm,orthorhombic,1.2042000000000002,False,3.32682703,7.57956996,25.988068
CuAgTe2,3,top-down,Pmm2,mm2,orthorhombic,0.0,False,3.18940384,4.20000051,24.32586016
CrHg(PbO3)2,4,top-down,P-1,-1,triclinic,2.2695,False,6.58563415665082,7.211900584193098,26.970662802632013
Nb2Zn2CoO8,4,top-down,P2/c,2/m,monoclinic,2.4234,False,5.2941062850534255,6.005472977209215,28.543019
CrSb(PO4)2,4,top-down,P2_1/m,2/m,monoclinic,1.9731,False,4.78703658,5.81214959,31.105186
Yb(AlGe)2,3,top-down,P-3m1,-3m,trigonal,0.17670000000000008,False,4.17463903,4.17463912136847,25.237217
Mn3TeO8,3,top-down,C2/m,2/m,monoclinic,0.8936999999999999,False,5.912984890127773,6.278659705784728,22.162201643894825
LiFePO4,4,top-down,P2_1/m,2/m,monoclinic,3.8925,True,4.823724915096476,6.22580864,23.051241009803295
Zn2Fe3O8,3,top-down,P2/m,2/m,monoclinic,0.0,False,5.057601522029695,6.04306069,21.80384107288287
Ba2Hg,2,top-down,P4/mmm,4/mmm,tetragonal,0.0,False,4.14180853,4.14180853,23.72770304
ZnCr2O5,3,top-down,Pmmn,mmm,orthorhombic,0.0,False,3.79286329,11.47708266,24.148438
ZrTlF5,3,top-down,P2_1/c,2/m,monoclinic,5.059900000000001,True,8.06963422,8.04274079,25.85814
Pb2O3,2,top-down,P4/nmm,4/mmm,tetragonal,1.8143000000000002,False,4.7633335,4.78203968,25.526611
Cr3O8,2,top-down,P2/m,2/m,monoclinic,0.0,False,4.86099372,5.96685526,22.030038
CdH2SeO4,4,top-down,Pmn2_1,mm2,orthorhombic,4.2024,False,4.99609931,5.96768125,24.25522144
Ta2CS2,3,top-down,P-3m1,-3m,trigonal,0.022099999999999786,False,3.29160384,3.2916035080442203,25.63952932
Al(HO)3,3,top-down,P1,1,triclinic,4.2635,True,5.05609827371033,8.777973301530015,24.129394215169835
CuMoO4,3,top-down,P1,1,triclinic,0.4309000000000003,False,6.203830850401878,11.048246284271682,22.430071
Ta3SBr7,3,top-down,P3m1,3m,trigonal,0.855,True,7.11100551,7.112375025036301,23.462318
AgIrF7,3,top-down,Pmc2_1,mm2,orthorhombic,0.0,False,7.05657356,7.79000893,26.591026
VO2F,3,top-down,Pm,m,monoclinic,2.4932,False,3.190132923051595,4.238092571861261,22.452984
FeSb(PO4)2,4,top-down,P2_1/m,2/m,monoclinic,1.9044000000000003,False,4.837369286203066,5.90959559,31.219319949672403
MnTeO4,3,top-down,P2/m,2/m,monoclinic,0.08570000000000011,True,3.1354476192169587,5.7127227419053614,22.185981159290563
MgV4O10,3,top-down,Pmm2,mm2,orthorhombic,0.8696000000000002,False,3.72201156,11.2691788,24.168564
Gd2CCl2,3,top-down,P-3m1,-3m,trigonal,0.4931000000000001,False,3.74921619,3.749215765120774,26.259022
LiTePO5,4,top-down,P2_1/m,2/m,monoclinic,3.7872999999999997,False,6.61465346,5.93079305,24.737266
SrVSi2O7,4,top-down,Pmma,mmm,orthorhombic,2.4887,False,5.46925128,7.07551086,26.08394
C,1,top-down,Cmmm,mmm,orthorhombic,0.0,False,3.676018438535222,3.676018313724856,22.47662104
Li2MnF6,3,top-down,P2/c,2/m,monoclinic,2.7142,False,5.223001109610087,7.5393903599762675,25.400847
Te3As2,2,top-down,P-3m1,-3m,trigonal,0.7317,False,4.07373551,4.073734961939726,27.30324778
Sr2GaBi2O7,4,top-down,P2_1,2,monoclinic,0.1786000000000001,False,6.05545101107026,6.3081536276234225,27.532597
NbTeI3,3,top-down,P2/c,2/m,monoclinic,0.5800999999999998,False,7.193396122650023,13.69136767598372,25.90754875
VOF,3,top-down,P-3m1,-3m,trigonal,2.5777,False,3.31457126,3.314571192248568,25.44278999
LiCuS2,3,top-down,P2/m,2/m,monoclinic,1.1886999999999999,False,3.376108850271013,5.3874709468557995,21.581057
Bi3Se2ClO8,4,top-down,Pmmn,mmm,orthorhombic,0.7361000000000004,True,7.43720808,10.63083591,27.089933
Mn(CuCl2)2,3,top-down,Pmm2,mm2,orthorhombic,0.9825000000000004,False,3.69907896,7.86161832,22.051601
TiGeO3,3,top-down,P-3,-3,trigonal,1.8012000000000001,False,5.0217654000000005,5.021765250083347,24.05973603
LiSb3(PO5)2,4,top-down,P1,1,triclinic,3.5577,False,6.6762495646966595,7.277651554840627,19.49166222195301
LiNi(PS3)2,4,top-down,P312,32,trigonal,0.03189999999999982,False,5.804050814530901,5.874031249487402,23.136283281581377
BiF5,2,top-down,Pmma,mmm,orthorhombic,0.6183999999999994,False,3.80282004,8.92156055,23.90326448
Te2Mo,2,top-down,P-6m2,-6m2,hexagonal,1.0563,True,3.56785055,3.5678501821399955,23.619353
Cd(HO)2,3,top-down,P3m1,3m,trigonal,2.0792,False,3.81571834,3.815718978066257,22.867768
LiBi(PO3)4,4,top-down,P1,1,triclinic,3.9569,False,7.180326408385739,6.757457702797814,25.809064
V(TeO3)4,3,top-down,P1,1,triclinic,1.4855,False,5.094578413442735,8.992309678679039,24.282234
Te(WO4)2,3,top-down,P1,1,triclinic,2.1315,False,5.075695901915473,5.831549304884723,25.287978
ZrGeTe,3,top-down,P4/nmm,4/mmm,tetragonal,0.0,False,3.78036382,3.78036382,26.789383
Mn2F7,2,top-down,P2_1,2,monoclinic,0.6005000000000003,True,5.03905482,7.26119598,31.216642
CdInGaS4,4,top-down,P3m1,3m,trigonal,0.4962,False,3.89140155,3.891401103356596,29.63090823
NaW2(Br3O)2,4,top-down,P2/m,2/m,monoclinic,0.0,False,3.86564619,11.12563756,23.697105
MnF3,2,top-down,C2/m,2/m,monoclinic,1.4801000000000002,False,5.197631864228248,5.197631730785372,21.91529652510163
Sr(IO3)2,3,top-down,P2_1,2,monoclinic,3.7237999999999998,True,6.11799222,6.09602972,27.660731
BaH4O3,3,top-down,Pmc2_1,mm2,orthorhombic,3.7203,True,3.88892679,5.68510291,26.505645
NaAsO2,3,top-down,Pca2_1,mm2,orthorhombic,4.3315,False,5.07021254,6.709333,25.09520931
Ga2CuCl8,3,top-down,P2_1/c,2/m,monoclinic,0.5759999999999996,False,7.17435789,12.15240345,24.866331
SbAsO4,3,top-down,P2_1/m,2/m,monoclinic,3.5221000000000005,False,4.80533176,7.07743945,23.390266
Ba2InBrO3,4,top-down,P4/nmm,4/mmm,tetragonal,2.02,False,4.27111991,4.27111991,33.350436
H2Pb4SO8,4,top-down,P-1,-1,triclinic,2.8777000000000004,False,6.253927490266897,7.5298798789571135,28.06554952031565
ScIO,3,top-down,P2_1/m,2/m,monoclinic,2.0127,False,3.8712192324373063,7.2283797052103615,26.363985086601662
TaPbF7,3,top-down,Pm,m,monoclinic,4.9096,True,5.014087684600278,6.51253727014528,23.263153
Li(FeO2)3,3,top-down,P31m,3m,trigonal,0.5844,False,5.1369493793051975,5.1364003840036165,23.601948
InS,2,top-down,P2_1/c,2/m,monoclinic,1.8875000000000002,False,6.098882496063565,10.4882542,19.368291149756693
ZnBi4O9,3,top-down,P2/c,2/m,monoclinic,1.4009,False,7.945260325914362,8.861555847573902,24.306683322777122
Ta(WO4)2,3,top-down,P1,1,triclinic,2.5046,False,4.976792470915534,5.274202995432215,25.575187
LiCu(PO3)4,4,top-down,P1,1,triclinic,0.5297999999999998,False,5.046538937696612,6.954438423847814,26.327185
Nb2MoO8,3,top-down,P2/c,2/m,monoclinic,1.5430000000000001,False,5.091040287187241,6.006812780080378,27.562789
CaSnS3,3,top-down,Pmm2,mm2,orthorhombic,0.29120000000000035,False,4.19282637,7.26463902,21.74581
Al2S3,2,top-down,P1,1,triclinic,0.0,False,6.066092540431045,7.465179635416192,34.11714179176342
Hg2W2O7,3,top-down,P-1,-1,triclinic,2.9808000000000003,True,5.2286232361819485,9.883271692535141,24.77333802369441
SbO2,2,top-down,P2_1/m,2/m,monoclinic,1.2373000000000003,False,3.2214948869435314,10.713424130992397,24.52445240266452
Ag3SbS3,3,top-down,Pc,m,monoclinic,1.7199,False,6.314890169204924,6.627963685555136,26.34513
Sb2O5,2,top-down,P2_1/c,2/m,monoclinic,1.2496,True,5.04589576,9.09808715,29.107731
HIO3,3,top-down,Pca2_1,mm2,orthorhombic,2.9047,False,5.53748868,5.92101946,27.580351
YIO,3,top-down,P-3m1,-3m,trigonal,2.5913,True,3.92217864,3.9221792397060846,27.209693
LiFe2OF5,4,top-down,Cm,m,monoclinic,2.7557,False,5.297652892437578,5.233782851189526,23.307747
Ga2Fe2S5,3,top-down,P-6m2,-6m2,hexagonal,0.0,False,3.591073414852126,3.591099078831517,32.10405104537469
CdBiSe2I,4,top-down,P2/m,2/m,monoclinic,0.6362999999999999,False,4.09048495,11.0119558,25.971922
NaSb(PS3)2,4,top-down,P2_1/c,2/m,monoclinic,1.8573000000000002,False,7.27189616,11.45021662,29.418513
Ta2I5,2,top-down,Cm,m,monoclinic,0.0031000000000001027,False,6.414990871101737,6.422542260326842,24.894354
Co2TeCl2O3,4,top-down,P2_1/m,2/m,monoclinic,1.6819000000000002,False,5.012394911733057,6.5450987196881005,29.15562451586464
ZnGe2WO6,4,top-down,P2_1/c,2/m,monoclinic,1.904,False,5.51251256,8.71809229,30.161196
Bi2Te4Pb,3,top-down,P-3m1,-3m,trigonal,1.045,False,4.46615517,4.466155082032208,31.417273
NaI3O8,3,top-down,P-4,-4,tetragonal,3.4210000000000003,False,8.17057004,8.17057004,24.573457
YVF5,3,top-down,Pmmm,mmm,orthorhombic,0.8960999999999997,False,4.45407073,8.3910252,24.456606
Li3V4O11F,4,top-down,P1,1,triclinic,2.3479000000000005,True,4.971572462547121,4.976731185016648,28.262877
Hg3SeO6,3,top-down,P1,1,triclinic,1.0625,False,7.152449791372211,7.143583686863094,22.212454
AgGeO3,3,top-down,Pmma,mmm,orthorhombic,0.0,False,2.91866593,7.68044608,25.556162