Formula,No. of Elements,Discovery Process,Space Group,Point Group,Crystal System,Band Gap,Is Gap Direct?,a,b,c
KMnP,3,top-down,P4/nmm,4/mmm,tetragonal,0.0,False,3.75174773,3.75174773,26.345437
MgI2,2,top-down,P-3m1,-3m,trigonal,3.6569,False,4.17511257,4.175112399918688,23.34704
ThI4,2,top-down,P2_1/c,2/m,monoclinic,1.8413000000000002,True,8.13791679,14.38801957,24.540058
ZrSe2,2,top-down,P-3m1,-3m,trigonal,0.4588000000000001,False,3.80757587,3.807574863835646,23.185148
Mg(AlS2)2,3,top-down,P-3m1,-3m,trigonal,2.1091,True,3.70521556,3.705216302372351,29.038372
ScCl,2,top-down,P-3m1,-3m,trigonal,0.0,False,3.46849136,3.4684911170219945,25.800151
Ga2FeS4,3,top-down,P-3m1,-3m,trigonal,0.0,False,3.65151175,3.651512442297159,29.10361
TlRe3(Se2Cl)2,4,top-down,P-1,-1,triclinic,1.4625000000000001,False,6.637191731295674,8.955249448462803,27.000876
K2RuBr6,3,top-down,Pmn2_1,mm2,orthorhombic,0.0,False,7.11271233,10.10077042,27.708499
KNb3O8,3,top-down,Pmmn,mmm,orthorhombic,2.4264,False,3.85447759,9.09668203,30.152799
VCl3,2,top-down,P-31m,-3m,trigonal,0.0018000000000002458,True,5.960401610000002,5.9604014786060215,22.719206
SbI3,2,top-down,P-31m,-3m,trigonal,2.1727,False,7.47559098,7.47559063852418,23.602559
GaSeBr7,3,top-down,Pc,m,monoclinic,2.2338999999999998,False,6.47988998,17.42553341,23.87652
Te4Pt3,2,top-down,P2/m,2/m,monoclinic,0.0,False,3.33697397,7.26832686,25.116398
USe2O7,3,top-down,P2,2,monoclinic,2.2377999999999996,True,6.741344497575347,9.480502967110306,24.3245
TlBS3,3,top-down,Pc,m,monoclinic,2.1367000000000003,False,5.835483817979804,6.814280491547267,23.902579
SiTe2,2,top-down,P-3m1,-3m,trigonal,0.0,False,3.81791989,3.8179200396139947,23.271594
AlClO,3,top-down,Pmmn,mmm,orthorhombic,5.8584,False,3.1667358,3.64356604,25.034731
HgI2,2,top-down,C2/m,2/m,monoclinic,1.9596,False,4.3938140267215005,4.393814379380315,23.713486
UIN,3,top-down,P4/nmm,4/mmm,tetragonal,0.0,False,3.90699643,3.90699643,26.225646
PtPb4,2,top-down,P4/nbm,4/mmm,tetragonal,0.0,False,6.85664741,6.85664741,23.084874
Fe(SbS2)2,3,top-down,Pmc2_1,mm2,orthorhombic,0.0,False,3.49621395,11.06754301,28.965234
PbO,2,top-down,P4/nmm,4/mmm,tetragonal,2.6193999999999997,True,4.0034427,4.0034427,22.37917
PtI2,2,top-down,P2_1/c,2/m,monoclinic,1.4719,False,7.0267724,8.69910676,25.88777
FeSi2,2,top-down,P4/mmm,4/mmm,tetragonal,0.0,False,2.56924647,2.56924647,22.803662
Ce2O3,2,top-down,P321,32,trigonal,0.0,False,5.87063365,5.870633438408334,22.07364
Li2Te2O5,3,top-down,P2_1/c,2/m,monoclinic,3.7203,False,4.75632998,12.26401414,26.761364
LuSBr,3,top-down,Pmmn,mmm,orthorhombic,2.9600000000000004,True,3.92727816,5.23565603,26.102419
RbMnP,3,top-down,P4/nmm,4/mmm,tetragonal,0.0,False,3.80062211,3.80062211,26.63297
Na4Br2O,3,top-down,P4/mmm,4/mmm,tetragonal,0.0,False,4.63133191,4.63133191,30.519016
AlPd5I2,3,top-down,P4/mmm,4/mmm,tetragonal,0.0,False,4.09208575,4.09208575,27.268541
CaH4SO6,4,top-down,P2/c,2/m,monoclinic,4.2664,True,5.617840420319013,6.295895116136231,27.341369
In4Se3,2,top-down,Pmn2_1,mm2,orthorhombic,1.1230000000000002,False,4.04431471,12.17419019,30.194773
CuCO3,3,top-down,Pm,m,monoclinic,0.0,False,3.01049129,4.79296089,21.678615
Ni2Te3O8,3,top-down,C2,2,monoclinic,2.5705999999999998,False,5.15091634,6.648200962033948,25.122584
FeCl2,2,top-down,P-3m1,-3m,trigonal,0.0,False,3.48746545,3.4874655908094265,22.803737
RbPbI3,3,top-down,Pmc2_1,mm2,orthorhombic,2.6112,False,5.61017936,8.24906669,28.617347
K2Hg3(GeS4)2,4,top-down,P2,2,monoclinic,1.8896999999999995,False,9.103456334623797,9.464421746292224,22.959421
In2O3,2,top-down,P321,32,trigonal,1.9228000000000005,True,6.17433014,6.1743297041912735,21.755018
Te2O3F2,3,top-down,P-1,-1,triclinic,3.2906000000000004,False,5.116724724923669,6.1725209225716355,26.118815
CaMg(SiO3)2,4,top-down,P2_1/c,2/m,monoclinic,3.9166000000000003,False,5.40842467,9.11107068,31.527002
CuHOF,4,top-down,P2_1/c,2/m,monoclinic,0.21469999999999967,False,5.32399581,6.34101234,23.584713
AgXeF9,3,top-down,P4/m,4/m,tetragonal,1.3331999999999997,False,5.50058476,5.50058476,30.313274
LaI3,2,top-down,Pmmn,mmm,orthorhombic,2.1172,True,4.39990787,10.08827734,24.85506
Sb2S3,2,top-down,P2_1/m,2/m,monoclinic,1.2272999999999998,False,3.86073557,11.07346125,24.834145
CuBiS2,3,top-down,Pmc2_1,mm2,orthorhombic,0.2447999999999999,True,3.875925,6.17401566,25.435115
InClO,3,top-down,Pmmn,mmm,orthorhombic,2.6454999999999997,False,3.56353558,4.12751276,25.6635
Cu2SO4,3,top-down,C222,222,orthorhombic,2.1967999999999996,False,4.46183763,5.773380384651084,21.774454
Te2Au,2,top-down,P-3m1,-3m,trigonal,0.0,False,3.9820047000000005,3.997674839929282,23.009688
BaTe2F10,3,top-down,P2/c,2/m,monoclinic,5.2169,False,4.8311123,10.2244869,26.60372
Pr2Br5,2,top-down,P2_1/m,2/m,monoclinic,0.3495999999999999,False,4.12534943,15.70254149,25.269992
BiTeI,3,top-down,P3m1,3m,trigonal,1.5743999999999998,False,4.39675785,4.396758344065857,23.93099988
Sb2S2O,3,top-down,P-1,-1,triclinic,1.8598,True,8.2524116810848,11.032485133290836,23.479745
CaHI,3,top-down,P4/nmm,4/mmm,tetragonal,3.8095,False,3.99484603,3.99484603,25.66785364
K2MgCl4,3,top-down,P4/mmm,4/mmm,tetragonal,0.0,False,4.97117855,4.97117855,31.2649
WSe2,2,top-down,P-6m2,-6m2,hexagonal,1.5272000000000001,True,3.33061865,3.330618667618171,23.362456
Ca(HO)2,3,top-down,P-3m1,-3m,trigonal,3.6708,True,3.60058921,3.6005892173045853,24.25201
ErSCl,3,top-down,Pmmn,mmm,orthorhombic,3.0040999999999993,True,3.92862857,5.29713075,25.85323547
Y2NCl3,3,top-down,C2/m,2/m,monoclinic,2.1569000000000003,False,3.80681169,9.656938902297526,25.446268
InAg(PSe3)2,4,top-down,P312,32,trigonal,0.9136000000000002,False,6.55915507,6.559154798267325,23.64261433
Sc2NCl2,3,top-down,P-3m1,-3m,trigonal,0.0,False,3.35400606,3.3540061531783114,25.752814
TbCl,2,top-down,P-3m1,-3m,trigonal,0.0,False,3.71992024,3.719920163883377,26.291679
TlIn(PSe3)2,4,top-down,P-1,-1,triclinic,1.61,False,6.5175136099162945,12.931096887320797,24.539426
InAg(PS3)2,4,top-down,P312,32,trigonal,1.3938000000000001,False,6.22550545,6.225505973676829,23.408901
CaClF,3,top-down,P4/nmm,4/mmm,tetragonal,6.110799999999999,True,3.74745087,3.74745087,25.75519146
TiBrO,3,top-down,Pmmn,mmm,orthorhombic,0.0,False,3.37269939,4.04237221,25.238347
Ge(Te2As)2,3,top-down,P-3m1,-3m,trigonal,0.6517999999999999,True,4.1355399,4.135540088997786,30.398143
MnBr2,2,top-down,P-3m1,-3m,trigonal,1.5185,False,3.84766428,3.8476640508361983,23.10733087
TiCl2,2,top-down,P-3m1,-3m,trigonal,0.0,False,3.51083005,3.510829799906555,23.01431808
GaS,2,top-down,P-6m2,-6m2,hexagonal,2.4777,False,3.61661489,3.6166157693131096,24.64035
TaI2O,3,top-down,Pmmm,mmm,orthorhombic,0.9411999999999998,False,3.89801939,7.482327118017037,24.722307785991497
LaBr,2,top-down,P-3m1,-3m,trigonal,0.0,False,4.08084714,4.080847216036103,26.854569
MoCl3,2,top-down,C2/m,2/m,monoclinic,0.1261000000000001,True,5.863130096588258,5.863130124103067,23.306516
GaHO2,3,top-down,Pmn2_1,mm2,orthorhombic,2.8514999999999997,True,2.92653678,5.0947487,25.96199831
Pb2O3,2,top-down,P2_1/c,2/m,monoclinic,1.8733,False,5.57731157,7.76199618,25.496775
Sr3Fe2Cl2O5,4,top-down,P4/mmm,4/mmm,tetragonal,0.8717999999999999,False,3.95977193,3.95977193,29.85258817
SiAs,2,top-down,C2/m,2/m,monoclinic,1.8965,False,3.70131064,10.860815223929347,24.945108156415166
Bi(TeBr2)2,3,top-down,P-1,-1,triclinic,0.8142,True,7.087320461564417,11.362889362907005,23.831568
CrClO,3,top-down,Pmmn,mmm,orthorhombic,1.8635000000000002,False,3.23584378,3.91501885,25.153493
RhBr3,2,top-down,P-31m,-3m,trigonal,1.4985,False,6.351617894770094,6.351617832463627,22.819371
GeAs2,2,top-down,Pmc2_1,mm2,orthorhombic,1.1962,False,3.76143336,10.56315758,26.149775
InSbS3,3,top-down,P2_1/m,2/m,monoclinic,1.8069999999999997,False,3.8898199,9.00439077,25.425169
RbFe2Te3,3,top-down,Pmma,mmm,orthorhombic,0.0,False,5.55279436,9.7492363,24.076995
VCl2,2,top-down,P-3m1,-3m,trigonal,1.2961999999999998,False,3.63352723,3.6335273134538872,22.665532
CrI2,2,top-down,C2/m,2/m,monoclinic,0.2530999999999999,False,3.94157103,4.270397059259913,23.26583
NaClO4,3,top-down,Pmmn,mmm,orthorhombic,5.5747,True,6.87033613,6.78295757,22.792057
PbBrF,3,top-down,P4/nmm,4/mmm,tetragonal,3.0495,False,4.07129596,4.07129596,25.470245
TiIN,3,top-down,Pmmn,mmm,orthorhombic,0.031200000000000117,True,3.53196442,3.96750147,25.80328
Hf2CuGe4,3,top-down,P4/nmm,4/mmm,tetragonal,0.0,False,3.77274196,3.77795756,34.721605
BiI3,2,top-down,P-31m,-3m,trigonal,2.5333999999999994,False,7.6036854300000005,7.603686238250903,23.70417354
SnO,2,top-down,P4/nmm,4/mmm,tetragonal,3.0232,False,3.81786966,3.81786966,22.324217
Ca2Cu(ClO)2,4,top-down,P4/mmm,4/mmm,tetragonal,0.0,False,3.81841475,3.81841475,25.7104099
Mo2SBr2,3,top-down,Pmma,mmm,orthorhombic,0.9683,True,6.67598431,12.06017202,26.376456
NaGaH4,3,top-down,Pmma,mmm,orthorhombic,4.6494,True,6.14689073,7.06385162,22.59197
OsCl2O,3,top-down,Pmmm,mmm,orthorhombic,0.0,False,3.61128118,3.72734563,23.168512
PbCN2,3,top-down,P2_1/m,2/m,monoclinic,2.0599,False,3.89369577,5.522444913922804,22.93043457969485
Nb(SCl)2,3,top-down,C2/m,2/m,monoclinic,1.8206999999999998,False,6.30513896,6.409801193708374,24.07775
KFe2S3,3,top-down,Pmma,mmm,orthorhombic,0.0,False,5.15584579,8.51757698,23.918231
RbBrF4,3,top-down,P4/mbm,4/mmm,tetragonal,3.3946999999999994,True,7.02952774,7.02952774,22.44673546
CuI,2,top-down,P4/nmm,4/mmm,tetragonal,2.0728,True,4.03561223,4.03561223,23.396832
GeAsSe,3,top-down,P222_1,222,orthorhombic,1.7883999999999998,True,5.11377838,10.37813187,23.389651
LaI2,2,top-down,P4/mmm,4/mmm,tetragonal,0.0,False,3.93960531,3.93960531,23.801584
CaAsH5O6,4,top-down,Pc,m,monoclinic,3.936,True,5.8958288729701245,6.189785329954226,28.030287
AsO2,2,top-down,Pmn2_1,mm2,orthorhombic,3.2434,True,5.33105822,7.46454352,25.995831
Sr3Fe2Br2O5,4,top-down,P4/mmm,4/mmm,tetragonal,0.9118999999999999,False,3.98145308,3.98145308,30.382989
SrIF,3,top-down,P4/nmm,4/mmm,tetragonal,4.6395,False,4.22396668,4.22396668,26.006202
TaTe4I,3,top-down,Cmme,mmm,orthorhombic,0.7748000000000002,False,6.744387553650807,9.192811760870638,24.685759928450548
Pb5(SI3)2,3,top-down,C2/m,2/m,monoclinic,2.3291,False,4.46825973,15.598562426977507,26.798296
RbPaF6,3,top-down,Pmma,mmm,orthorhombic,4.038,False,7.05710729,8.00873643,22.533786
SrHI,3,top-down,P4/nmm,4/mmm,tetragonal,3.9292000000000002,False,4.23844015,4.23844015,25.844158
CaH4SeO6,4,top-down,P2/c,2/m,monoclinic,3.944,True,5.728771288356551,6.522394614456825,27.58074
LiHO,3,top-down,P4/nmm,4/mmm,tetragonal,3.9169,True,3.58529216,3.58529216,23.642814
In4Bi2S9,3,top-down,P2_1/m,2/m,monoclinic,0.6781999999999999,False,3.90370071,20.62094156,30.03316
CeGe2,2,top-down,P4/mmm,4/mmm,tetragonal,0.0,False,3.93812804,3.93812804,22.585733
Ge2Te5As2,3,top-down,P-3m1,-3m,trigonal,0.5232,False,4.16314035,4.163139866404131,33.872384
SnS,2,top-down,Pmn2_1,mm2,orthorhombic,1.5596,False,4.05176975,4.29005408,22.944182
TiNCl,3,top-down,Pmmn,mmm,orthorhombic,0.5740000000000003,True,3.27178571,3.95088952,25.224666
TiTe2,2,top-down,P-3m1,-3m,trigonal,0.0,False,3.78048427,3.7804838177478186,23.447106
GdBr3,2,top-down,P-31m,-3m,trigonal,2.2791,True,7.197635274450127,7.197635864157934,23.221851
Na2PbO2,3,top-down,P2/c,2/m,monoclinic,2.5515,False,6.02916188,6.96186846,25.568512
SnPbF4,3,top-down,P4/nmm,4/mmm,tetragonal,3.5213,False,4.30868946,4.30868946,27.918416
Hg2IO,3,top-down,C2,2,monoclinic,1.5462999999999996,False,7.00119914,9.643820554038223,21.256252
DySI,3,top-down,Pmmn,mmm,orthorhombic,2.7782,True,4.17108668,5.31303842,26.6928539
RbPSe6,3,top-down,Pca2_1,mm2,orthorhombic,2.0015,False,11.23496175,12.17222925,25.870156
IrBr3,2,top-down,P-31m,-3m,trigonal,1.8151000000000002,False,6.407049714281328,6.407049581644101,22.782597
V2O5,2,top-down,P2_1/m,2/m,monoclinic,2.4337999999999997,False,3.62032614,10.08531169,24.973404
Ba2N,2,top-down,P-3m1,-3m,trigonal,0.0,False,3.97096314,3.9709634892406647,23.013152
MnTeMoO6,4,top-down,P2_12_12,222,orthorhombic,2.1897,False,5.1358242,5.37974207,27.64137847
InBrO,3,top-down,Pmmn,mmm,orthorhombic,2.3891,False,3.66368105,4.09955061,25.978651
Nb2Te6I,3,top-down,P-1,-1,triclinic,0.7258,False,9.314342836071356,9.728836822800325,25.380927607897103
PbO,2,top-down,Pbcm,mmm,orthorhombic,2.6469,False,4.77494451,5.59387314,22.719646
Nb2Se3,2,top-down,P2_1/m,2/m,monoclinic,0.011499999999999844,False,3.42816745,9.92020541,23.767864
Ta2Te5Pd3,3,top-down,Pmn2_1,mm2,orthorhombic,0.0,False,3.72332328,18.77100767,24.44891727
SrH4O3,3,top-down,Pmc2_1,mm2,orthorhombic,4.3476,True,3.58850245,6.61198471,25.815293
NaSO2,3,top-down,P2/c,2/m,monoclinic,2.3045,True,6.395930206832908,6.562289621473721,24.557083
RuCl2O,3,top-down,Pmmm,mmm,orthorhombic,0.0,False,3.54585051,3.6976926315230108,23.36389494614567
UBr4,2,top-down,C2/m,2/m,monoclinic,0.19160000000000021,False,7.111061805625381,7.111061873623605,25.183597
IO3,2,top-down,C2/m,2/m,monoclinic,1.9443000000000006,False,6.834069442179768,6.853822519136676,22.558957
CaPH3O4,4,top-down,P2_1/c,2/m,monoclinic,4.6119,True,6.68911579,7.903740697211225,27.02178758688796
BiClO,3,top-down,P4/nmm,4/mmm,tetragonal,2.7401,False,3.88501226,3.88501226,25.299774
DySBr,3,top-down,Pmmn,mmm,orthorhombic,2.8858,True,4.04864428,5.33225684,26.256839
Zn3As2,2,top-down,P-4m2,-42m,tetragonal,0.8138000000000001,True,8.61513937,8.61513937,25.78159276
AlCl3,2,top-down,P-31m,-3m,trigonal,5.524,True,5.956954257303925,5.956954308940125,22.686737
NaFeAs,3,top-down,P4/nmm,4/mmm,tetragonal,0.0,False,3.87249727,3.87249727,24.818933
Ca3Cu2(ClO2)2,4,top-down,P4/mmm,4/mmm,tetragonal,0.0,False,3.84015128,3.84015128,28.734563
Bi9I2,2,top-down,P2_1/m,2/m,monoclinic,0.0,False,4.46034153,13.31532151,34.949519
Nb2GeTe4,3,top-down,Pbam,mmm,orthorhombic,0.4303999999999999,False,6.55247042,7.97767642,23.799407
HgI2,2,top-down,P-4m2,-42m,tetragonal,1.8584999999999998,False,4.35878089,4.35878089,23.537958
TmIO,3,top-down,P4/nmm,4/mmm,tetragonal,3.4339,False,3.86427848,3.86427848,25.978991
NbO2,2,top-down,P-6m2,-6m2,hexagonal,0.0,False,3.00012826,3.000128321404306,22.381326
InCu(PSe3)2,4,top-down,P312,32,trigonal,0.5503999999999998,True,6.43909824,6.439097977331319,23.432235
Tl3BSe3,3,top-down,P2_1/m,2/m,monoclinic,1.7392999999999998,True,5.641720702892761,10.15677473,26.24495674274385
NaTaCl6,3,top-down,P2_1,2,monoclinic,2.891,True,6.3573743,6.77298832,29.419431
NiI2,2,top-down,P-3m1,-3m,trigonal,0.14219999999999988,False,3.92740412,3.9274048509721777,23.007705
V2Pb3O8,3,top-down,C2,2,monoclinic,3.1693,True,5.710655125935509,5.710655000177472,25.14671
TeO2,2,top-down,P2_1/c,2/m,monoclinic,2.5369,False,5.18443979,5.7356237554918685,23.68004671009683
Te3Cl2,2,top-down,P2_1/c,2/m,monoclinic,1.367,True,8.48966439,13.136523332157845,24.22868146435993
CdBr2,2,top-down,P-3m1,-3m,trigonal,3.2859999999999996,True,4.01365776,4.013657593500948,23.24151588
ReCl3,2,top-down,P-3m1,-3m,trigonal,1.2066000000000003,False,10.24600359,10.24600296358668,26.856072
ReBiO4,3,top-down,Pmma,mmm,orthorhombic,0.0,False,3.77217417,5.68814484,29.47438
SmBr3,2,top-down,Pmmn,mmm,orthorhombic,2.9908,True,4.02620029,9.15288912,24.38451335
CuSbSe2,3,top-down,Pmc2_1,mm2,orthorhombic,0.15229999999999988,True,3.99753739,6.44765343,25.21363656
LiCu(PO3)2,4,top-down,P2/c,2/m,monoclinic,2.4231000000000003,True,4.632194839614792,10.06494333245786,25.913477
BiPO4,3,top-down,P2_1/c,2/m,monoclinic,2.0499,False,6.59869389,10.963417458428435,22.998494014699077
KPSe6,3,top-down,Pca2_1,mm2,orthorhombic,1.9942,False,11.16918918,11.87556048,25.7738128
Hg2P2S7,3,top-down,C2,2,monoclinic,2.1689,False,6.03411247,6.223719362468428,25.17689595857768
LuHCl,3,top-down,P-3m1,-3m,trigonal,0.0,False,3.6330883,3.633088148537686,25.966386
ZrCl2,2,top-down,P-6m2,-6m2,hexagonal,1.6073,False,3.40782882,3.4078284130817367,23.53633796
TaTe4Ir,3,top-down,P2_1/m,2/m,monoclinic,0.0242,False,3.8060853,12.57340572,23.997392
CuH2(SeO3)2,4,top-down,P2_1/c,2/m,monoclinic,0.07289999999999974,True,7.26371291,8.76122667,23.561907
SbF3,2,top-down,Pmn2_1,mm2,orthorhombic,4.5992,False,5.20869595,6.69148612,23.123083
BiIO,3,top-down,P4/nmm,4/mmm,tetragonal,1.5306000000000002,False,4.01931465,4.01931465,26.221992
CuHgSCl,4,top-down,Pmc2_1,mm2,orthorhombic,0.6755,False,3.97341065,9.90129097,28.594127
UBrN,3,top-down,P4/nmm,4/mmm,tetragonal,0.0,False,3.83090226,3.83090226,25.836978
K4Br2O,3,top-down,P4/mmm,4/mmm,tetragonal,0.0,False,5.44902421,5.44902421,30.80214239
NdGe2,2,top-down,P4/mmm,4/mmm,tetragonal,0.0,False,4.05856325,4.05856325,22.598543
TlPbI3,3,top-down,Pmma,mmm,orthorhombic,2.0065999999999997,False,4.52401459,12.91776198,27.708298
LaCl,2,top-down,P-3m1,-3m,trigonal,0.0,False,4.03451975,4.0345192886827475,26.453515
K2Sb4S7,3,top-down,C2,2,monoclinic,1.7646,False,6.48174384830463,6.48174319541921,27.705185
MoNCl3,3,top-down,P-1,-1,triclinic,1.6099999999999994,True,8.169827056592856,9.170139991497381,25.982432789608865
SnF4,2,top-down,P4/mmm,4/mmm,tetragonal,3.9143999999999997,False,4.14808981,4.14809151,23.818243
InTeBr,3,top-down,P2_1/c,2/m,monoclinic,2.1671,True,7.65975319,8.3675384,24.28073
Cd(IO3)2,3,top-down,P2_1,2,monoclinic,3.456,False,5.67610102,5.87191922,27.369033
Si(PbSe2)2,3,top-down,P2_1/c,2/m,monoclinic,1.6298000000000001,False,7.13252172,18.612949581400485,23.16142544511789
CaMnSi,3,top-down,P4/nmm,4/mmm,tetragonal,0.0,False,3.8612193,3.8612193,25.47653246
SnI2,2,top-down,C2/m,2/m,monoclinic,2.0978,False,4.49540392,11.896546218919626,24.43264
Nb3Cl7,2,top-down,Pmna,mmm,orthorhombic,1.0564,False,11.13381064,13.40248397,25.93167058
As2SO6,3,top-down,P2_12_12,222,orthorhombic,4.2166,True,4.76894391,11.28500663,23.36856417
MnAlGe,3,top-down,P4/nmm,4/mmm,tetragonal,0.0,False,3.73447923,3.73447923,23.49635
MnI2,2,top-down,P-3m1,-3m,trigonal,1.1068000000000002,False,4.12394477,4.123944676892981,23.320309
Ca2N,2,top-down,P-3m1,-3m,trigonal,0.0,False,3.5917809,3.591780616697681,22.510799
TiSe2,2,top-down,P-3m1,-3m,trigonal,0.0,False,3.54284243,3.542842482938277,23.094961
TiS2,2,top-down,P-3m1,-3m,trigonal,0.02619999999999978,False,3.41423445,3.4142343797976062,22.87399598
BiTeCl,3,top-down,P3m1,3m,trigonal,1.8037,True,4.28501571,4.285015254242195,23.407854
TiBr2,2,top-down,P-3m1,-3m,trigonal,0.0,False,3.70248525,3.702485446048868,23.26954417
MgCl2,2,top-down,P-3m1,-3m,trigonal,6.0688,True,3.63859075,3.638589984875258,22.746457
SmS,2,top-down,P4/nmm,4/mmm,tetragonal,0.0,False,3.921704651129429,3.921704697840868,23.293072
ScHCl,3,top-down,P-3m1,-3m,trigonal,0.0,False,3.49311357,3.4931138522067267,25.74685524
Bi,1,top-down,P-3m1,-3m,trigonal,0.5565000000000002,True,4.31710441,4.317104861456916,22.35922164
ThI2,2,top-down,P-6m2,-6m2,hexagonal,0.031100000000000017,False,4.0039315,4.00393227980037,24.529209
Te2Rh,2,top-down,P-3m1,-3m,trigonal,0.0,False,3.77222292,3.7722230001437977,22.756461
Ge(BiTe2)2,3,top-down,P-3m1,-3m,trigonal,0.9948,False,4.37470125,4.374701723212928,31.059379
NiBr2,2,top-down,P-3m1,-3m,trigonal,0.5054000000000003,False,3.6496975,3.649697934548244,22.803043
VClO,3,top-down,Pmmn,mmm,orthorhombic,1.5966999999999998,False,3.36407224,3.83189964,25.27968793
InBi,2,top-down,P4/nmm,4/mmm,tetragonal,0.0,False,4.68572748,4.68572748,23.98289748
Y4CI5,3,top-down,Pmmm,mmm,orthorhombic,0.0,False,3.96695619,8.47811567,26.262827
MnCl2,2,top-down,P-3m1,-3m,trigonal,1.7650000000000001,False,3.68465199,3.6846519687320316,22.766088
Mg(AlH4)2,3,top-down,P-3m1,-3m,trigonal,4.6441,False,5.21844318,5.218442720347687,26.762383
ZrSe3,2,top-down,Pmmn,mmm,orthorhombic,0.44819999999999993,False,3.78041573,5.48170843,26.26488
ErHCl,3,top-down,P-3m1,-3m,trigonal,0.0,False,3.70207208,3.7020728600758814,26.04024867
WS2,2,top-down,P-6m2,-6m2,hexagonal,1.8023999999999998,True,3.19343431,3.19343396416255,23.13104506
CuBr2,2,top-down,C2/m,2/m,monoclinic,0.0,False,3.47520056,3.988321393265756,22.997972
MnO2,2,top-down,P-3m1,-3m,trigonal,1.9487000000000005,False,2.92040775,2.920408022693614,21.912169
ZrP2(HO3)2,4,top-down,P-3m1,-3m,trigonal,4.134,True,5.50755838,5.507558535966094,26.106037