Formula,No. of Elements,Discovery Process,Space Group,Point Group,Crystal System,Band Gap,Is Gap Direct?,a,b,c
VS2,2,top-down,Pmmm,mmm,orthorhombic,0.0,False,2.89839577,3.40556089,23.446938
TiO2,2,top-down,P2_1/m,2/m,monoclinic,2.6710000000000003,False,5.18183806,5.98602606,21.97372
BaLaBr5,3,top-down,P2_1/m,2/m,monoclinic,3.2332,False,4.57516264,16.21298396,24.956723
Mg2H2O3,3,top-down,P-3m1,-3m,trigonal,2.6736,True,3.07819529,3.078194653698242,26.500413
AgAuCl4,3,top-down,P2/c,2/m,monoclinic,0.8121,False,4.1173477638857605,13.152574358337178,22.925014
Pr4C2Cl5,3,top-down,Pmmm,mmm,orthorhombic,0.0,False,3.91297287,7.84913148,25.972871
Sr2Cu(BrO)2,4,top-down,P4/mmm,4/mmm,tetragonal,0.0,False,3.96836132,3.96836132,26.20612488
Co(HO)2,3,top-down,P3m1,3m,trigonal,2.4006,True,3.4470931403530707,3.447093010661168,22.796122
MnPSe3,3,top-down,P-31m,-3m,trigonal,0.45020000000000016,True,6.40488554,6.404885183225904,23.41156667
ZnGe2WO6,4,top-down,P2/c,2/m,monoclinic,2.4092,False,4.97364691,8.96875011,24.84813
V2CuO6,3,top-down,C2/m,2/m,monoclinic,0.0,False,3.6096798008244666,9.112608980617152,23.829942
Al(HO)3,3,top-down,C2/m,2/m,monoclinic,4.0626,True,4.974018144318281,5.06342564964387,24.009669
CeBrO,3,top-down,P-3m1,-3m,trigonal,0.0,False,3.97898718,3.9789869566626916,26.91006
TeHO3,3,top-down,P1,1,triclinic,1.8807000000000005,False,4.727513045768975,8.007720888331658,25.76483
VINCl3,4,top-down,P-1,-1,triclinic,1.0650999999999997,False,5.876353159036988,7.633246481192742,25.743521
Li2Cr2O7,3,top-down,P-1,-1,triclinic,2.4987,False,5.6050141513500344,7.746436735845638,25.09158
S(IN)2,3,top-down,P-1,-1,triclinic,1.5517000000000003,True,12.139886220905332,12.48684199902601,20.502237
LiP(HO)2,4,top-down,Cmme,mmm,orthorhombic,5.4113,True,5.414955474874384,5.414955813733144,25.187049
PrBrO,3,top-down,P4/nmm,4/mmm,tetragonal,4.6653,True,4.02462635,4.02462635,25.51401
U2Te5,2,top-down,Pmmm,mmm,orthorhombic,0.0,False,4.172960475525246,6.149786270048445,33.881617
TiMn2O6,3,top-down,C2/m,2/m,monoclinic,1.7679,False,2.94624158,7.783554273913399,21.926218
Mg2Sn3O8,3,top-down,P2/m,2/m,monoclinic,2.5267,False,5.45456734,6.32455643,24.320573
LiCuF4,3,top-down,Pc,m,monoclinic,0.0,False,3.8070213093135394,5.100453432189439,29.270304
AgTeO3,3,top-down,P2_1/m,2/m,monoclinic,1.1883,True,6.75574906,7.44796185,27.200997
NaB(CO2)4,4,top-down,Pmma,mmm,orthorhombic,2.9269,True,7.88833997,10.36931001,22.925255
CdI2,2,top-down,P-3m1,-3m,trigonal,2.4768,False,4.28242564,4.282426366460042,23.435848
CaP2(H2O3)3,4,top-down,P-1,-1,triclinic,4.5598,False,5.660949698436382,6.217677925208484,31.53609
Fe3Se4,2,top-down,C2/m,2/m,monoclinic,0.0,False,3.46539462,3.499053322536355,28.870951350937194
Hg3As,2,top-down,P6/mmm,6/mmm,hexagonal,0.0,False,5.90496589,5.904966244418557,20.0
Bi2Te3,2,top-down,P-3m1,-3m,trigonal,0.9707,False,4.42216246,4.42216200213496,27.568998
Bi2OF4,3,top-down,P2/c,2/m,monoclinic,4.1061000000000005,True,5.88013846,5.52338769,25.460398
Mg(SnO2)2,3,top-down,Pmmn,mmm,orthorhombic,3.1189,True,6.120318163955121,11.019323161091311,25.619207
La2Si(IO2)2,4,top-down,P2_1/c,2/m,monoclinic,3.0927000000000002,True,8.580808873161768,8.486421832586071,28.088202
NiPS3,3,top-down,P-31m,-3m,trigonal,0.04730000000000034,False,5.82785175,5.825031654128322,23.03721
FeP3(H2O3)3,4,top-down,Pc,m,monoclinic,2.9352,False,6.46125195,9.77601221,27.947416
ZrBr,2,top-down,P-3m1,-3m,trigonal,0.0,False,3.53060884,3.530608411368499,26.10845122
K2Bi3F11,3,top-down,P1,1,triclinic,0.0,False,3.94337940124555,4.346564604415108,35.981735
Li2(FeO2)3,3,top-down,P31m,3m,trigonal,0.0,False,5.158177915032404,5.209650149635864,21.596397221859043
BiSbO3,3,top-down,P-3,-3,trigonal,2.8059000000000003,True,6.005678017737646,6.006754322780816,25.233042
SnSO4,3,top-down,P-1,-1,triclinic,3.958,False,4.97606265765364,10.060077916954434,25.140881
Ca2CoO3,3,top-down,P4/mmm,4/mmm,tetragonal,0.9089,True,3.242518396469508,3.2425182140983724,24.417755
BaH9IO5,4,top-down,P-1,-1,triclinic,3.9113999999999995,False,6.292413405154944,7.964916726626698,28.183747
Mn2CrO6,3,top-down,C2/m,2/m,monoclinic,0.7400000000000002,False,2.90309236,7.769202296167682,21.927806
Co(IO3)2,3,top-down,P1,1,triclinic,2.5853,False,5.396501546177074,5.530063228018974,23.167979031032118
Mn2CoO6,3,top-down,C2/m,2/m,monoclinic,1.5274,False,2.8954737174510803,7.625787697519936,21.933201357186796
V2NiSe4,3,top-down,P-3m1,-3m,trigonal,0.0,False,3.5817861043856225,3.5817863183123224,28.748867
Nb2SiTe4,3,top-down,Pm,m,monoclinic,0.0,False,3.710387417385216,6.69566667391409,25.318392
HfSe2,2,top-down,P-3m1,-3m,trigonal,0.6556000000000002,False,3.77086905,3.7708688518899867,23.150314
HfTe2,2,top-down,P-3m1,-3m,trigonal,0.0,False,3.98484277,3.984843144690355,23.555608
LiCu3F10,3,top-down,Pc,m,monoclinic,0.0,False,3.7777572996078583,14.255165366203299,28.639176
Sr2CoO3,3,top-down,P4/mmm,4/mmm,tetragonal,0.8491,True,3.5075378566589404,3.5075371988882775,24.521056
V3H5O8,3,top-down,P1,1,triclinic,1.4834,False,3.0763828109764395,9.610763431397688,25.334731
FeCl3,2,top-down,P1,1,triclinic,0.6612,False,3.655353249173441,9.162026644501115,25.609538
Ca(SnN)2,3,top-down,P-4m2,-42m,tetragonal,0.0,False,3.4237701,3.4237701,25.574963
Zr2HBr2,3,top-down,P2_1/m,2/m,monoclinic,0.0,False,3.54713102,5.95092136,26.418606
Ta2MnZn2O8,4,top-down,P2/c,2/m,monoclinic,2.6976999999999998,False,5.33061124,6.05061031,28.595393
Cu(IO3)2,3,top-down,P2_1/m,2/m,monoclinic,0.4267999999999996,False,4.86089116,6.38060875,26.699999
CuO2F,3,top-down,Pmn2_1,mm2,orthorhombic,0.0,False,4.04055465,3.16319196,26.097078
TlBrO3,3,top-down,P3m1,3m,trigonal,3.3996999999999997,False,6.1348726,6.134873101791503,22.116076
PtI4,2,top-down,Pca2_1,mm2,orthorhombic,0.8949000000000003,True,6.85782674,15.63074265,25.450448
Sc(IO3)3,3,top-down,P-3,-3,trigonal,3.9825999999999997,False,9.82766418,9.82766449950516,22.843548
ZnSnO2,3,top-down,C2/m,2/m,monoclinic,2.4425,False,3.3950216505721778,9.513943473029705,26.230446
EuIO,3,top-down,P4/nmm,4/mmm,tetragonal,0.0,False,4.01009827,4.01009827,26.57140462
MgNiP2O7,4,top-down,P-1,-1,triclinic,3.4783,False,5.9224018210659395,8.178492702759637,24.438904
Ba2Ni3O8,3,top-down,P4/mmm,4/mmm,tetragonal,0.0,False,3.905119771801251,3.9068747703735203,28.320098
Hg,1,top-down,P6/mmm,6/mmm,hexagonal,1.5472999999999995,False,3.4582404694463746,3.5066956987064946,20.0
Ba2Mn3O7,3,top-down,Pmm2,mm2,orthorhombic,0.0,False,3.775494807513156,3.816576125817743,29.284799112774465
TiF4,2,top-down,P1,1,triclinic,4.3064,False,5.159008663341536,5.45899043227456,22.755988
AgO2F,3,top-down,P222_1,222,orthorhombic,1.0928000000000004,False,4.02468671,7.08576093,21.962158
Ta4Co2PdSe12,4,top-down,C2/m,2/m,monoclinic,0.006600000000000161,False,3.42984461,18.309061368855268,25.291044
AgClO2,3,top-down,P2_1/m,2/m,monoclinic,0.013100000000000112,False,3.67037323,3.9507919,29.636063
Sc5Cl8,2,top-down,P2/m,2/m,monoclinic,0.0,False,3.5320244307010054,13.297102086093604,25.191904
W3O8,2,top-down,P2/m,2/m,monoclinic,1.2149,False,5.325129317658071,6.14813592,21.94812947543014
Ti(FeSe2)2,3,top-down,P-1,-1,triclinic,0.0,False,3.8739976260939835,6.059808828366147,23.232574
Zn(SbO2)4,3,top-down,P1,1,triclinic,1.878,False,3.262032768072648,9.27244958684508,26.086289
SnSO4,3,top-down,Pmn2_1,mm2,orthorhombic,4.1899999999999995,False,5.3337425,7.31761513,25.800084
Bi2Se3,2,top-down,P-3m1,-3m,trigonal,0.8890999999999998,False,4.17518381,4.175184288205163,27.040325
TiO2,2,top-down,Pmm2,mm2,orthorhombic,2.7076,True,6.25735332,6.52127479204033,22.009726
TlPd2Se3,3,top-down,P-3m1,-3m,trigonal,0.9563000000000001,False,7.34879902,7.348798718080867,24.71473241
TmBrO,3,top-down,P4/nmm,4/mmm,tetragonal,4.5451,True,3.76339921,3.76339921,25.584692
LaP3H8O7,4,top-down,P-1,-1,triclinic,4.9742,False,7.126148074677173,9.689068132348822,28.173637
MgCl2O,3,top-down,P2_1/c,2/m,monoclinic,2.5719,True,6.27165553,7.55177357,24.763571
MgSiO3,3,top-down,P2_1/c,2/m,monoclinic,3.6778,True,5.26683061,9.09212289,30.852203
Cr(CoO3)2,3,top-down,C2/m,2/m,monoclinic,0.0,False,2.8466345148121897,7.628241507857195,21.913233
Bi2Te2S,3,top-down,P4/mmm,4/mmm,tetragonal,0.5732999999999999,False,4.26442546,4.26504967,26.487177
CaSnS3,3,top-down,Pmmm,mmm,orthorhombic,0.10299999999999998,False,5.49386409,5.48457083,21.46663125
Mo3O8,2,top-down,Cm,m,monoclinic,1.2461000000000002,False,6.17632684,6.231935931992397,22.18446
Co2C2O7,3,top-down,C2,2,monoclinic,0.7152000000000003,False,4.8637538452038465,4.86509044647503,24.998151
DyCoSi2,3,top-down,P4/nmm,4/mmm,tetragonal,0.0,False,3.99180311,3.99120095,26.726826
TlV3(SeO6)2,4,top-down,P3,3,trigonal,2.3566,False,7.1431243,7.143124031171486,24.31857493
ZnSnO2,3,top-down,P-1,-1,triclinic,0.0,False,3.1451971466645587,8.500144747824457,29.094708
Si2H2O5,3,top-down,P2,2,monoclinic,5.6211,False,5.11396515,5.5364326,26.979012
GePt,2,top-down,Pmmn,mmm,orthorhombic,0.0,False,3.88119004,2.94188544,20.08589796
LiMnPO4,4,top-down,Pmma,mmm,orthorhombic,2.8000999999999996,True,5.94109798,8.47895545,22.504064
Li2Cu2F5,3,top-down,P2_1/m,2/m,monoclinic,0.10199999999999987,False,2.91888147,7.70492958,27.667236
Cr3O8,2,top-down,P-3m1,-3m,trigonal,0.6708999999999996,False,5.607027383207093,5.659266892134368,22.252842322834255
Mn(IO3)2,3,top-down,P2_1,2,monoclinic,2.7595,False,5.46198475,5.77230213,27.260365
LuBrO,3,top-down,P4/nmm,4/mmm,tetragonal,4.4857000000000005,True,3.73860178,3.73860178,25.518737
Sb4I2O5,3,top-down,P2_1/c,2/m,monoclinic,2.3944,False,5.18910376,13.44502484,27.051808
AuBrO2,3,top-down,P222_1,222,orthorhombic,0.9755000000000003,False,3.86323975,7.50041503,23.034943
InSiTe3,3,top-down,P3,3,trigonal,0.0,False,7.37242511,7.372425431880402,21.01384365
GeSe,2,top-down,Pmn2_1,mm2,orthorhombic,1.2541,False,3.91877142,4.45319417,22.785332
Sr2Co(ClO)2,4,top-down,P4/mmm,4/mmm,tetragonal,0.2258,False,4.03615395,4.03421091,25.439181
CuGe2P3,3,top-down,Pm,m,monoclinic,0.0,False,3.76427826,6.65331348,27.099302
W3Se2ClO8,4,top-down,Pm,m,monoclinic,0.0,False,5.713854940293257,11.578646264802614,26.666021
CrHO2,3,top-down,P2_1/c,2/m,monoclinic,2.3558,False,5.30712292,6.08832589,24.177874
Ca2Bi10O17,3,top-down,P1,1,triclinic,1.9624000000000001,False,7.761646677955652,7.794138367758171,27.269086
BaH4O3,3,top-down,P2_1/m,2/m,monoclinic,3.6137,False,4.22438904,6.39667749,28.297708
Sn2SbS2I3,4,top-down,Pmmn,mmm,orthorhombic,1.1641,True,4.22785349,16.27127565,25.285146
YBr3,2,top-down,P-31m,-3m,trigonal,4.0441,False,7.10990339900357,7.109903242746238,23.281872
RuCl3,2,top-down,P-31m,-3m,trigonal,0.0030999999999998806,True,5.93330986,5.933461980363699,22.681607
LaO3,2,top-down,Cmmm,mmm,orthorhombic,0.0,False,4.628283091212475,7.552097246410342,22.34445
H3Pt,2,top-down,P6/mmm,6/mmm,hexagonal,0.0,False,3.56852684,3.568526790180497,20.0
Li2V3(CO3)6,4,top-down,P-1,-1,triclinic,0.6638999999999999,False,4.814681302133778,12.594303775726276,24.523845
AlP,2,top-down,P4/mbm,4/mmm,tetragonal,2.1264999999999996,False,7.7611425,7.7611425,20.0
BiO2,2,top-down,P2_1/m,2/m,monoclinic,0.6539999999999999,False,6.190065252944651,6.981926741042738,22.301034
Ca3(HO3)2,3,top-down,C2/m,2/m,monoclinic,1.7766,False,4.38729447,5.286919910936473,26.3473
CuO2,2,top-down,Pmmm,mmm,orthorhombic,0.0,False,2.40322443,6.53937486,20.000226
VCl2O,3,top-down,Pmma,mmm,orthorhombic,1.6460999999999997,False,3.7012192406854107,6.940944000629894,23.301649
Ba2Tl2W3O10,4,top-down,P2,2,monoclinic,0.0,False,3.857169641647705,3.8834171223015317,36.814092
Na2FeO2,3,top-down,P2/c,2/m,monoclinic,1.2738999999999998,True,5.910116,6.88861636,25.163948
InPbCl3,3,top-down,Pmma,mmm,orthorhombic,2.7866999999999997,True,4.18609335,11.31384136,26.914179
RbCrClO3,4,top-down,P2_1/c,2/m,monoclinic,2.7944999999999998,False,7.49088679,8.00870333,27.37993
TaSe2,2,top-down,P-3,-3,trigonal,0.1591999999999998,False,12.648642066050135,12.649303157412652,23.61286
TiSn(PO4)2,4,top-down,P2_1/m,2/m,monoclinic,2.2502,False,4.95756246,6.18450491,31.018786
MoF4,2,top-down,Pc,m,monoclinic,2.7862,False,5.028506341652871,5.3044864944432275,22.733903
Bi2TeSe2,3,top-down,P-3m1,-3m,trigonal,1.1357000000000002,False,4.2571511,4.2571511268260425,27.47599937
SrTcN3,3,top-down,P222_1,222,orthorhombic,0.0,False,4.13618972,5.67085666,29.3739
V3(HO2)4,3,top-down,C2/m,2/m,monoclinic,0.0,False,3.74430971,9.059501579949421,25.718202868907394
Li2Nb(PO4)2,4,top-down,P-3,-3,trigonal,0.0,False,5.025819261336505,5.029669894800758,30.29715
AsAuO3,3,top-down,P2/c,2/m,monoclinic,1.1237,True,4.770487382079495,11.994717406704321,24.909374
AlSiTe3,3,top-down,P-31m,-3m,trigonal,1.3272999999999997,False,6.91984822,6.919847962333498,23.64095799
Fe(CoO3)2,3,top-down,C2/m,2/m,monoclinic,0.0,False,2.84770173,7.637288992535655,21.917521
FeS2,2,top-down,P-3m1,-3m,trigonal,0.0,False,3.19866887,3.19866964602278,22.70130772
TaSe3,2,top-down,P2_1/m,2/m,monoclinic,0.0,False,3.51825619,12.309011583270445,27.060311425900416
Ge2Sb2Te5,3,top-down,P-3m1,-3m,trigonal,0.26639999999999997,False,4.24771935,4.2477184830781685,35.25309547
BeF2,2,top-down,C2,2,monoclinic,7.188,False,4.52912522,4.846517159808753,22.65503755081358
Al2SnCl6O,4,top-down,P-1,-1,triclinic,3.9486,False,9.44610974340785,8.969421190577497,25.623654
FeTe(PO4)2,4,top-down,Pm,m,monoclinic,0.9183000000000003,True,4.883035911543491,9.859802505433736,22.443118
FeO3,2,top-down,C2/m,2/m,monoclinic,0.0,False,2.82277922,7.763683594999964,23.065356
Cu2WS4,3,top-down,P-42m,-42m,tetragonal,1.5945,False,5.44312629,5.44312629,22.60918716
CaSb2O5,3,top-down,Amm2,mm2,orthorhombic,0.0,False,3.91642412,5.959260228629428,23.87996629
CrBr2,2,top-down,C2/m,2/m,monoclinic,0.44789999999999974,False,3.6413487,4.0200793305512,23.014007
Si(HgO2)2,3,top-down,C222,222,orthorhombic,2.5986,False,6.379018847252117,6.379019208672534,22.25881688
Cu2BiAsO6,4,top-down,Pmn2_1,mm2,orthorhombic,0.06820000000000004,False,5.35847286,7.57264546,27.677853
Tl2Te2O5,3,top-down,P2_1/c,2/m,monoclinic,3.1308,True,8.50607094,12.04702953,26.504549
Ca3SiBr2,3,top-down,Pmmm,mmm,orthorhombic,0.7999,False,4.51299346,5.84459254,24.856391
UCO5,3,top-down,Pmm2,mm2,orthorhombic,2.2299000000000007,False,4.33457133,4.88321065,23.58608539
Zr(MoO4)2,3,top-down,P-3m1,-3m,trigonal,3.2029,False,5.97342164,5.9734210541937145,27.076536
MoO3,2,top-down,P31m,3m,trigonal,0.09160000000000057,False,6.09982558,6.09982617560117,23.483765
TlFeS2,3,top-down,C2/m,2/m,monoclinic,0.0,False,5.08243996,6.074390918748784,24.34491
TlW2(Cl3O)2,4,top-down,P2/m,2/m,monoclinic,0.0,False,3.86467431,11.107244605242066,23.468561504794305
CaCr4O9,3,top-down,P4/n,4/m,tetragonal,0.8073999999999999,False,8.460692380819241,8.460749550218816,26.56415
GdZnPO,4,top-down,P-3m1,-3m,trigonal,0.6408999999999999,True,3.92561257,3.925612921673636,28.402182
NdZnPO,4,top-down,P-3m1,-3m,trigonal,1.7292,False,3.98845764,3.988458099441216,28.568206
CoBiO3,3,top-down,P4mm,4mm,tetragonal,0.0,False,3.89107622,3.89107622,23.36030627
CoTeMoO6,4,top-down,P2_12_12,222,orthorhombic,2.4364999999999997,False,5.073916566507285,5.313644956152621,27.48936815343912
Sr3Fe2S2O5,4,top-down,P4/mmm,4/mmm,tetragonal,0.0,False,4.0021425,4.0021425,28.896185
Li3V(OF)2,4,top-down,P2/c,2/m,monoclinic,0.2541,True,5.046720301625455,5.045481762547775,23.42640426
Cu2As4S3Cl2,4,top-down,Pm,m,monoclinic,1.1627999999999998,True,6.180862952559963,6.85253362,23.91912227729146
VBr2O,3,top-down,Pmmm,mmm,orthorhombic,0.4088000000000003,True,3.6440018001037613,3.682649958570402,23.59312
Sr(ClO2)2,3,top-down,P4/nbm,4/mmm,tetragonal,2.8196999999999997,False,5.96228698,5.97771189,24.26421454
Mg(ReO4)2,3,top-down,P-3,-3,trigonal,4.0403,False,5.78405487,5.7840542723632495,26.86560626
NpBr3,2,top-down,Pmmn,mmm,orthorhombic,0.0,False,4.06797662,9.15112247,24.55220239
LiV(OF)2,4,top-down,Pca2_1,mm2,orthorhombic,2.5586,True,6.718842440182489,8.742311479155932,24.793775
CuO2F,3,top-down,P222_1,222,orthorhombic,0.8411,False,3.43838809,6.44109539,21.25088891
Er2Te5O13,3,top-down,P-1,-1,triclinic,3.0654,False,6.942927511329443,8.57501742933715,30.980177
Ba3In2Br2O5,4,top-down,P4/mmm,4/mmm,tetragonal,1.5442,False,4.29169743,4.29169743,30.72181831
FeTeBr7,3,top-down,P1,1,triclinic,1.0430000000000001,False,6.756322393999094,8.753238453906791,28.754933031416133
Tl4SnS3,3,top-down,P42_12,422,tetragonal,1.0171999999999999,True,8.02014067,8.02014067,24.82205933
ZnSb4O9,3,top-down,P4/n,4/m,tetragonal,0.0,False,9.559572447687184,9.540624716342812,22.50326597
MgGeO3,3,top-down,Pmma,mmm,orthorhombic,1.7748,False,3.00769624,7.89368778,24.534528
Ca(SbO2)4,3,top-down,Pm,m,monoclinic,1.8101,False,3.246434020032785,9.376521234063375,24.880627
MgBi4O9,3,top-down,P2/c,2/m,monoclinic,1.4286000000000003,False,7.921268081864276,8.903799695881201,25.247404
Li3MnP2,3,top-down,P-4m2,-42m,tetragonal,0.0,False,3.95781424,3.95781424,25.618048
GaAg(PSe3)2,4,top-down,P312,32,trigonal,0.9722,False,6.43423505,6.434234388067796,23.50350561
W3O8,2,top-down,P-3m1,-3m,trigonal,1.6563000000000003,False,6.22225516,6.222255819293302,22.196517
BaH2O3,3,top-down,Pmc2_1,mm2,orthorhombic,3.0461,False,3.904224389897484,6.270993795377818,25.795252
SbP2O7,3,top-down,P-1,-1,triclinic,0.011600000000000499,False,6.3573787188377615,6.516019317534927,24.957327
Ni(HO)2,3,top-down,P-3m1,-3m,trigonal,2.2172,True,3.13840437,3.1384040245586284,23.901006
CaHClO,4,top-down,P3m1,3m,trigonal,3.6422,True,3.80964082,3.8096409071098756,23.451387
HfNCl,3,top-down,P-3m1,-3m,trigonal,3.463,False,3.58017359,3.58017324819147,26.228535
TiNiO3,3,top-down,P-3,-3,trigonal,2.0616,False,5.257539590000007,5.257539684853407,23.40334823
KH4O2F,4,top-down,Pmc2_1,mm2,orthorhombic,4.942399999999999,False,3.97115966,6.99200056,24.233636
Sr2Cu(BiO3)2,4,top-down,Pmna,mmm,orthorhombic,0.0,False,5.11419663,5.47282127,29.02988067
LiFe2C2O7,4,top-down,P1,1,triclinic,2.4768,False,4.9260847720240175,4.95279451658708,26.50037
Tb2C,2,top-down,P-3m1,-3m,trigonal,0.0,False,3.51289608,3.5128965336806055,22.716782
ScBrO,3,top-down,Pmmn,mmm,orthorhombic,3.3226000000000004,False,3.55769733,3.96126045,25.849373
Gd2CF2,3,top-down,P-3m1,-3m,trigonal,0.6980999999999999,False,3.62784582,3.6278457918647655,25.028774
Bi,1,top-down,Pmma,mmm,orthorhombic,0.0,False,3.26702302438575,5.908069518256933,20.0
WO2,2,top-down,P6/mmm,6/mmm,hexagonal,0.0,False,3.05982694,3.0598265145875443,23.607919
V2CdO6,3,top-down,C2/m,2/m,monoclinic,2.7060000000000004,False,3.67104491,9.488499049100009,24.369164
Nb3IrS8,3,top-down,C2,2,monoclinic,0.0,False,6.714954703564562,6.716572494194652,23.347623
Mo2HO6,3,top-down,P1,1,triclinic,0.0,False,3.8124049256539476,3.836714503924775,26.91646
NaAsO2,3,top-down,P2_1/c,2/m,monoclinic,4.2768,False,5.107539051135642,6.73307237,24.94052283214417
MgCr4O9,3,top-down,P4/n,4/m,tetragonal,0.8167999999999997,False,8.41599799,8.41599799,26.164534
LiVOF3,4,top-down,P2_1/c,2/m,monoclinic,2.1386000000000003,True,5.00564687,7.272748783327198,25.066750707244946
GeTe,2,top-down,Pbcm,mmm,orthorhombic,0.0,False,4.02776034,11.16996799,23.44926095
SrBr3,2,top-down,P6/mmm,6/mmm,hexagonal,0.0,False,6.43465567,6.434656018391346,20.0
AuBr,2,top-down,Cmme,mmm,orthorhombic,1.9037,False,4.183149218692845,4.183149218692845,23.904198
LiFeO2,3,top-down,P3m1,3m,trigonal,0.9059000000000004,True,3.03630998,3.0363093247077177,23.768547
UF6,2,top-down,P2_1/m,2/m,monoclinic,2.7634999999999996,False,5.003721776086469,9.513890419251519,25.237920457698483
Fe(CO3)2,3,top-down,P-3,-3,trigonal,0.0,False,4.74815335,4.74815354615135,22.326582
LiMnF4,3,top-down,P2_1/c,2/m,monoclinic,1.8173000000000004,False,7.47190881,7.72227492,24.359671
V2Cu2O7,3,top-down,P2/c,2/m,monoclinic,0.0,False,6.710848443885163,8.08512393525607,23.596478
CaLaI5,3,top-down,Pmma,mmm,orthorhombic,2.1241,True,4.40584515,18.95759048,24.546371
BeCrO4,3,top-down,Pc,m,monoclinic,2.5152,True,5.25612038,8.747968965550289,22.243196772251398
La2PI2,3,top-down,P-3m1,-3m,trigonal,0.0,False,4.3232005,4.323201149537718,27.507966
Mn(CO3)2,3,top-down,P-3,-3,trigonal,1.3293000000000008,False,4.65264099,4.652641460909639,22.248645