Formula,No. of Elements,Discovery Process,Space Group,Point Group,Crystal System,Band Gap,Is Gap Direct?,a,b,c
Nb2Br5,2,bottom-up,Cm,m,monoclinic,0.0,False,6.033780413907332,6.038674986005075,24.913779965795204
AsPt,2,bottom-up,P-6m2,-6m2,hexagonal,0.0,False,4.080066,4.082264338517289,20.0
CuCl2,2,bottom-up,P-4m2,-42m,tetragonal,0.0,False,3.468578,3.468578,23.530221
Hg3P,2,bottom-up,P6/mmm,6/mmm,hexagonal,0.0,False,5.774117,5.774117244437023,20.0
KSr,2,bottom-up,P2_1/m,2/m,monoclinic,0.0,False,4.0841532170966595,3.975685,26.08839574585001
AsO2,2,bottom-up,P3m1,3m,trigonal,0.0,False,5.938629,5.9386282497395815,22.984904
InP,2,bottom-up,P4/mbm,4/mmm,tetragonal,0.18799999999999972,False,8.410717,8.410717,20.0
Mg2P,2,bottom-up,P-4m2,-42m,tetragonal,0.0,False,4.30766,4.323245,22.957399
Na2F,2,bottom-up,P-3m1,-3m,trigonal,0.0,False,3.4020959000000013,3.4020957202274484,23.407847
TaI5,2,bottom-up,Pmma,mmm,orthorhombic,0.008500000000000174,True,3.73073601,20.37826907,23.595189
CrP,2,bottom-up,C2/m,2/m,monoclinic,0.06800000000000006,True,3.002679095662905,3.002551153846509,23.675575917390034
Pb3W,2,bottom-up,P6/mmm,6/mmm,hexagonal,0.0,False,6.11522,6.115219246791156,20.0
PCl5,2,bottom-up,Pmma,mmm,orthorhombic,0.001300000000000523,True,3.418769,12.266126,23.858436
ZrTe,2,bottom-up,P4/nmm,4/mmm,tetragonal,0.0,False,4.56135,4.56135,22.865869
Ca2As,2,bottom-up,P-4m2,-42m,tetragonal,0.0,False,4.63859914,4.69809485,22.957399
RuO3,2,bottom-up,C2/m,2/m,monoclinic,0.0,False,3.050931776495338,7.417442815051964,23.218515286124266
ScSe,2,bottom-up,P4/nmm,4/mmm,tetragonal,0.0,False,3.7062500075776055,3.7062500177765934,23.289565
PbS,2,bottom-up,Pbcm,mmm,orthorhombic,1.3610000000000002,False,4.0331303,12.31965677,22.971359
B2S3,2,bottom-up,Cm,m,monoclinic,0.0,False,2.9937166264404516,6.701854605164305,29.418889684490864
OsSe2,2,bottom-up,P2/c,2/m,monoclinic,0.0,False,5.655583650833666,6.600313739358279,22.968003346351274
GaBi,2,bottom-up,P4/mbm,4/mmm,tetragonal,0.0,False,9.352834,9.352834,20.0
MoP2,2,bottom-up,P-1,-1,triclinic,0.027899999999999814,False,4.305026330251254,6.091033322150711,22.598293710559133
TaBr4,2,bottom-up,P1,1,triclinic,0.7776000000000001,True,7.331078313801661,7.304921173611894,22.61278882789149
AsO2,2,bottom-up,P-1,-1,triclinic,1.7986000000000004,False,2.9558861787404807,10.429278247121417,23.603663015777062
BeF2,2,bottom-up,Pmma,mmm,orthorhombic,8.2478,True,2.688201,4.481959,23.548695
BeI2,2,bottom-up,P-1,-1,triclinic,2.5322,True,7.0397630278976715,7.050622830570644,23.509637570136935
SiBr4,2,bottom-up,P1,1,triclinic,3.949,True,8.180017574721708,7.984039889550465,22.63912437390097
CSe,2,bottom-up,Pbcm,mmm,orthorhombic,0.17689999999999984,False,3.31406415,10.36205042,22.971359
HfCl4,2,bottom-up,P4/mmm,4/mmm,tetragonal,2.0427999999999997,False,5.0141378,5.0141378,23.891423
HfO,2,bottom-up,P4/nmm,4/mmm,tetragonal,0.0,False,3.0191497303454455,3.0191868932136505,33.65844803226313
Sr2As,2,bottom-up,P-4m2,-42m,tetragonal,0.0,False,4.94554137,4.90275849,22.957399
TiCl4,2,bottom-up,P4/mmm,4/mmm,tetragonal,0.7492999999999999,False,4.826124,4.826124,23.891423
PO2,2,bottom-up,P6/mmm,6/mmm,hexagonal,0.0,False,3.3614669400000006,3.361467293741573,23.731552
Si3Sb4,2,bottom-up,C2,2,monoclinic,0.0,False,4.380725559914248,4.380725284279876,27.84110330267912
TeN,2,bottom-up,Cm,m,monoclinic,0.33810000000000007,False,3.4061186233632554,3.4061190693954018,23.264973259428196
HfF4,2,bottom-up,P4/mmm,4/mmm,tetragonal,4.9925999999999995,False,4.137811,4.137811,23.891423
CuTe2,2,bottom-up,P-4m2,mm2,tetragonal,0.0,False,3.25946596,6.335924137543473,22.829515074592717
HgS,2,bottom-up,P3m1,3m,trigonal,0.0,False,4.1942558,4.19425604929968,56.550342
ZrO2,2,bottom-up,P6/mmm,6/mmm,hexagonal,0.0,False,3.640403,3.640402336028533,23.425704
SnCl2,2,bottom-up,P-6m2,-6m2,hexagonal,2.7295,False,4.02544575,4.025446535841648,23.838
TiTe,2,bottom-up,P4/nmm,4/mmm,tetragonal,0.0,False,4.25575827,4.25575827,22.865869
NiH3,2,bottom-up,P6/mmm,6/mmm,hexagonal,0.0,False,3.31926495,3.319264910418713,20.0
CBr4,2,bottom-up,P1,1,triclinic,0.1261000000000001,False,6.179824937826481,7.412128868983558,22.779365054092263
PCl3,2,bottom-up,P-6m2,-6m2,hexagonal,0.7115,True,4.44355296,4.443552313580002,24.623946
ZrO2,2,bottom-up,P2_1/m,2/m,monoclinic,1.0746000000000002,False,4.17604813,6.8433641507663845,28.95354900622561
GaS,2,bottom-up,P3m1,3m,trigonal,0.3182999999999998,False,3.69025682,3.6902568350612395,21.250951
Os3Se4,2,bottom-up,P2_1/m,2/m,monoclinic,0.0,False,3.82099059,6.020543029490138,28.10594748668199
BeCl2,2,bottom-up,P-1,-1,triclinic,5.6961,True,5.949784221254168,5.95172125743603,23.514173550296565
WN2,2,bottom-up,C2/m,2/m,monoclinic,0.5267,False,3.6103522503737775,5.649272623618549,22.671554484643835
Ta2Cl5,2,bottom-up,Cm,m,monoclinic,0.0,False,5.654198939851161,5.656790022694231,24.913035896810108
TiI4,2,bottom-up,P4/mmm,4/mmm,tetragonal,0.0,False,5.60895877,5.60895877,23.891423
TiS,2,bottom-up,P4/nmm,4/mmm,tetragonal,0.0,False,4.082543,4.082543,22.865869
VF5,2,bottom-up,Pmma,mmm,orthorhombic,0.8951000000000002,True,3.525618,8.11394,23.595189
ScS,2,bottom-up,P4/nmm,4/mmm,tetragonal,0.0,False,3.5669280868210675,3.566928006123056,23.289565
CaCl2,2,bottom-up,Pmma,mmm,orthorhombic,3.4638999999999998,True,3.920088,7.093025,23.548695
AsPd,2,bottom-up,P-6m2,-6m2,hexagonal,0.0,False,4.08775109,4.0905350008631824,20.0
HoBi2,2,bottom-up,C222,222,orthorhombic,0.0,False,3.42403,3.548079654569356,24.927071
AlBr3,2,bottom-up,P2/m,2/m,monoclinic,1.6839,True,5.082216073472673,7.218643010666549,22.93559806876509
ZnSe,2,bottom-up,P3m1,3m,trigonal,0.0,False,4.01438159,4.014381433845819,56.585656
TeP,2,bottom-up,P4/nmm,4/mmm,tetragonal,0.0,False,4.089903874231521,4.089903248876432,23.274014164891238
Li2Cl,2,bottom-up,P-3m1,-3m,trigonal,0.0,False,3.480565900000001,3.480565684932175,23.407847
ZrSe,2,bottom-up,P4/nmm,4/mmm,tetragonal,0.0,False,4.483842,4.483842,22.865869
Ru3S4,2,bottom-up,P2_1/m,2/m,monoclinic,0.0,False,3.549043,5.808537077669385,28.105862292937005
GeO2,2,bottom-up,C2,2,monoclinic,1.9953000000000003,False,5.015608706966484,5.015608812745767,24.588884835535875
CuI2,2,bottom-up,P-4m2,-42m,tetragonal,0.0,False,3.88459929,3.88459929,23.530221
BCl3,2,bottom-up,P1,1,triclinic,4.4614,False,4.289494413976313,7.53129862523403,23.087137490733948
Ag2S,2,bottom-up,P6/mmm,6/mmm,hexagonal,0.0,False,4.61721,4.617209866105936,24.537695
Ru3Se4,2,bottom-up,P2_1/m,2/m,monoclinic,0.0,False,3.67933778,5.9975229137670185,28.104980988842193
FeSe2,2,bottom-up,P-3m1,-3m,trigonal,0.0,False,3.36027039,3.3602701488657156,22.670328
TePb,2,bottom-up,Pbcm,mmm,orthorhombic,0.6220999999999997,False,4.429988,12.327392,22.971359
GeO2,2,bottom-up,P-3m1,-3m,trigonal,3.5364000000000004,False,5.82075679,5.820757039174984,22.029164
Sb4Pb3,2,bottom-up,C2,2,monoclinic,0.0,False,5.076254123581096,5.0762540749494605,27.840217852895943
NaBe,2,bottom-up,P2_1/m,2/m,monoclinic,0.0,False,2.447546544315243,2.83104874,26.11440164478429
PtI2,2,bottom-up,P-1,-1,triclinic,0.0134000000000003,False,4.966777644252041,4.6312928975232515,24.906889832872764
GePb,2,bottom-up,P3m1,3m,trigonal,0.0,False,4.52148683,4.521485940991006,20.769747
Ta2Br5,2,bottom-up,Cm,m,monoclinic,0.0,False,5.961078679667632,5.968194842958965,24.91325444724637
SbSe,2,bottom-up,Pc,m,monoclinic,0.0,False,5.977228664339314,18.581428543976163,23.120845
Te4Pd3,2,bottom-up,P2/m,2/m,monoclinic,0.0,False,3.241667,7.2976336907279755,25.039237455381762
Te2Ru,2,bottom-up,P-3m1,-3m,trigonal,0.0,False,3.775595,3.7755950903036464,22.670328
AsI3,2,bottom-up,P-6m2,-6m2,hexagonal,0.37760000000000016,True,5.12555867,5.125557783258577,24.623946
HfO2,2,bottom-up,P-3m1,2/m,trigonal,4.8149999999999995,False,5.609339543312118,6.477426,21.97362029066046
Sn3As4,2,bottom-up,C2,2,monoclinic,0.0,False,4.492106843962641,4.492106627217568,27.858577218403152
NCl5,2,bottom-up,Pmma,mmm,orthorhombic,0.0,False,3.03409119,12.96821193,23.858436
Si3Rh,2,bottom-up,P-6m2,-6m2,hexagonal,0.0,False,3.8765459800000004,3.8765462030432647,24.981638
Ag2Te,2,bottom-up,P6/mmm,6/mmm,hexagonal,0.0,False,4.822283,4.822282245767246,24.537695
TcO2,2,bottom-up,Pmmn,mmm,orthorhombic,0.0,False,3.111882,3.976617,24.184989
NiCl2,2,bottom-up,P-1,-1,triclinic,0.0,False,4.293713843612743,4.421885534245905,24.95375984671231
AgTe2,2,bottom-up,P-4m2,mm2,tetragonal,0.0,False,3.220902,6.371174390247375,22.828347286166164
NaCa,2,bottom-up,P2_1/m,2/m,monoclinic,0.0,False,3.5944085415735647,3.479001,26.16290806289318
Al2Te3,2,bottom-up,Cm,m,monoclinic,0.0,False,4.162790782384817,7.343196414044501,29.446913132515217
CrAs2,2,bottom-up,P-1,-1,triclinic,0.0,False,4.0994315663673415,5.670295090684522,22.622847568658127
PbCl4,2,bottom-up,P-1,-1,triclinic,1.2252999999999998,False,7.18677350262703,6.377174292496874,22.507862381134842
PSe,2,bottom-up,Pmc2_1,mm2,orthorhombic,0.0,False,5.53930907,14.32233959,23.134393
Ba2N,2,bottom-up,P-4m2,-42m,tetragonal,0.0,False,4.135491,4.136994,22.957399
SeO3,2,bottom-up,P-6m2,-6m2,hexagonal,0.4626000000000001,False,3.57732125,3.577321209200546,23.590867
Si3As4,2,bottom-up,C2,2,monoclinic,0.0,False,4.024267364017828,4.0242677078530695,27.845790378321713
AuS2,2,bottom-up,P-4m2,mm2,tetragonal,0.0,False,2.745662,5.46683075177831,22.83015729998482
SbTe,2,bottom-up,Pmma,mmm,orthorhombic,0.0,False,6.37914614,16.18881129,23.134393
RbBa,2,bottom-up,P2_1/m,2/m,monoclinic,0.0,False,4.291361961650987,4.14131,25.918394804810347
Ni3Se4,2,bottom-up,P2/m,2/m,monoclinic,0.0,False,2.774197,7.319094333157416,25.299306950979606
CrP2,2,bottom-up,P-1,-1,triclinic,0.0,False,4.29721463044968,5.573543152631165,22.6452854086627
TiN2,2,bottom-up,P-3m1,-3m,trigonal,0.0,False,3.1195986800000006,3.1195993433708806,21.950498
Tc2O7,2,bottom-up,Pmma,mmm,orthorhombic,0.0,False,5.13927,5.393146,27.207449
AsS,2,bottom-up,Pmc2_1,mm2,orthorhombic,0.0,False,5.5138042,13.80390181,23.134393
TeAs,2,bottom-up,P4/nmm,4/mmm,tetragonal,0.0,False,4.234726404058827,4.234726028874832,23.27407687559743
Te4Os3,2,bottom-up,C2/m,2/m,monoclinic,0.0,False,4.06473842,7.044244929591043,28.108920371094506
Nb2I5,2,bottom-up,P1,1,triclinic,0.0,False,6.474319525888801,6.4937848177113935,24.91328466219246
Te2Os,2,bottom-up,P2/c,2/m,monoclinic,0.0,False,5.94628257548916,7.2200175730074925,22.94928901844663
Cu2S,2,bottom-up,P6/mmm,6/mmm,hexagonal,0.0,False,4.078936,4.078935829903187,24.537695
BaCl2,2,bottom-up,P-1,-1,triclinic,5.3544,False,9.188905570746124,9.26576856144224,23.531838926595345
Cd3P,2,bottom-up,P6/mmm,6/mmm,hexagonal,0.0,False,5.66854731,5.668547050082229,20.0
Mn2O7,2,bottom-up,Pmma,mmm,orthorhombic,0.0,False,4.304014,5.35303295,27.207449
PF5,2,bottom-up,Pmma,mmm,orthorhombic,0.00140000000000029,False,3.075908,10.010208,23.858436
OsO2,2,bottom-up,P-3m1,-3m,trigonal,0.0,False,3.08579994,3.0857999061934023,21.943227
HoSe,2,bottom-up,P4mm,4mm,tetragonal,0.0,False,3.8847157624813016,3.884715902530396,20.412137679245465
HoTe,2,bottom-up,P4mm,4mm,tetragonal,0.0,False,4.184542232087634,4.184542408768265,20.412192385182284
AlSb,2,bottom-up,P4/mbm,4/mmm,tetragonal,0.3376999999999999,False,8.786847,8.786847,20.0
BBr3,2,bottom-up,P1,1,triclinic,3.4706,False,4.16606207029084,7.933640358420086,23.01631901088204
TaO2,2,bottom-up,P6/mmm,6/mmm,hexagonal,0.0,False,3.17029088,3.1702909670648913,23.380728
NF5,2,bottom-up,Pmma,mmm,orthorhombic,0.0,False,2.723277,9.414168,23.858436
HfSe2,2,bottom-up,P4/mmm,4/mmm,tetragonal,0.0,False,3.31147326,3.31147326,22.61712
CeSe,2,bottom-up,P4/nmm,4/mmm,tetragonal,0.0,False,4.081315,4.081315,23.210158
SnBr2,2,bottom-up,P-6m2,-6m2,hexagonal,2.4057999999999997,False,4.14603825,4.14603912141763,23.838
PBr3,2,bottom-up,P-6m2,-6m2,hexagonal,0.3887999999999998,True,4.67224187,4.672241134607136,24.623946
HfSe,2,bottom-up,P4/nmm,4/mmm,tetragonal,0.0,False,4.342654,4.342654,22.865869
SiGe,2,bottom-up,P3m1,3m,trigonal,0.07359999999999989,True,3.9435224800000004,3.943521909276168,20.769747
PbCl2,2,bottom-up,P-6m2,-6m2,hexagonal,3.4304,False,4.1085849,4.108585740151147,23.838
Si3W,2,bottom-up,P6/mmm,6/mmm,hexagonal,0.0,False,4.93808417,4.938083949718608,20.0
SiPb,2,bottom-up,P3m1,3m,trigonal,0.21700000000000008,False,4.41427535,4.4142745188452555,20.769747
CdS,2,bottom-up,P4/nmm,4/mmm,tetragonal,2.2890000000000006,False,4.474554,4.474554,22.990012
BaI2,2,bottom-up,P-1,-1,triclinic,4.121,False,10.095565061708802,10.184373418425825,23.528700255823118
HfP2,2,bottom-up,P-3m1,-3m,trigonal,0.0,False,3.65960719,3.6596081824800217,21.950498
As2O3,2,bottom-up,Pmma,mmm,orthorhombic,1.1544000000000003,True,3.03448804,14.57748747,24.60873
BiTe,2,bottom-up,P4/nmm,4/mmm,tetragonal,0.0,False,4.5242747011205084,4.524274729567443,23.274055254613664
Au2Se,2,bottom-up,P6/mmm,6/mmm,hexagonal,0.0,False,4.70631351,4.706312824664467,24.537695
NiP,2,bottom-up,P-6m2,-6m2,hexagonal,0.0,False,3.64633,3.647050201264167,20.0
TaTe2,2,bottom-up,Pmmm,mmm,orthorhombic,0.0,False,3.7481858445901532,2.983739,23.426857937895
Pd3S4,2,bottom-up,P2/m,2/m,monoclinic,0.0,False,4.503791,7.120631211709886,25.156127807445824
HfI4,2,bottom-up,P4/mmm,4/mmm,tetragonal,0.5265,False,5.75731093,5.75731093,23.891423
In2O3,2,bottom-up,P-3m1,-3m,trigonal,1.8422999999999998,False,3.35832365,3.3583233278810445,24.629234
Cd3Bi,2,bottom-up,P6/mmm,6/mmm,hexagonal,0.0,False,6.08220971,6.082209366086046,20.0
BSb,2,bottom-up,P4/mbm,4/mmm,tetragonal,0.23370000000000024,False,7.396579,7.396579,20.0
BaCl2,2,bottom-up,Pmma,mmm,orthorhombic,3.2840000000000003,True,4.464385,8.324643,23.548695
LuP2,2,bottom-up,C222,222,orthorhombic,0.0,False,3.0721269600000003,3.349289162010221,25.031709
ScO3,2,bottom-up,P-1,-1,triclinic,0.0,False,3.9574144510961604,6.523695394565208,22.515450267208504
KBe,2,bottom-up,P2_1/m,2/m,monoclinic,0.0,False,4.052932601897047,2.68590206,26.08035451245763
ThC2,2,bottom-up,P4/mmm,4/mmm,tetragonal,0.0,False,3.6224309,3.6224309,22.685916
AsO2,2,bottom-up,P6/mmm,6/mmm,hexagonal,0.0,False,3.51336977,3.513370181153874,23.731552
CuHg3,2,bottom-up,P6/mmm,6/mmm,hexagonal,0.0,False,5.71940327,5.719403161941125,20.0
Ge3Mo,2,bottom-up,P6/mmm,6/mmm,hexagonal,0.0,False,5.20279897,5.202798700068317,20.0
MoPb3,2,bottom-up,P6/mmm,6/mmm,hexagonal,0.0,False,6.210858,6.2108573008596,20.0
W3O8,2,bottom-up,C2/m,2/m,monoclinic,1.8300999999999994,False,6.212229,6.249207201867529,22.218673624576333
TaSe2,2,bottom-up,Pmmm,mmm,orthorhombic,0.0,False,3.2830863462106064,3.55299399,23.44667338429472
AuO,2,bottom-up,Pmc2_1,mm2,orthorhombic,0.4636999999999998,False,3.13798052,7.13738364,23.702834
HgSe,2,bottom-up,P4/nmm,4/mmm,tetragonal,0.47540000000000004,True,4.548727,4.548727,22.990012
TaBr5,2,bottom-up,Pmma,mmm,orthorhombic,0.07919999999999927,False,3.4429469,18.73108308,23.595189
CdH,2,bottom-up,P6mm,6mm,hexagonal,0.0,False,3.04708929,3.0470895932364295,21.790565
Hg3Bi,2,bottom-up,P6/mmm,6/mmm,hexagonal,0.0,False,6.24446761,6.244467228531101,20.0
YTe,2,bottom-up,P4/nmm,4/mmm,tetragonal,0.0,False,4.167825001614271,4.167825037487298,23.289565
CrSi3,2,bottom-up,P6/mmm,6/mmm,hexagonal,0.0,False,4.81313723,4.813137030646225,20.0
GaCl3,2,bottom-up,Pm,m,monoclinic,3.2676000000000003,True,3.614822382750638,10.075220681737447,23.58238755485061
PdF2,2,bottom-up,P-1,-1,triclinic,0.0,False,4.266811584737015,3.7885247060270046,24.931435884102182
TiF4,2,bottom-up,P4/mmm,4/mmm,tetragonal,3.038599999999999,False,3.910706,3.910706,23.891423
TiTe2,2,bottom-up,P4/mmm,4/mmm,tetragonal,0.0,False,3.381599,3.381599,22.61712
NCl3,2,bottom-up,P-6m2,-6m2,hexagonal,0.0,False,3.82399983,3.8239994145380667,24.623946
CdTe,2,bottom-up,P4/nmm,4/mmm,tetragonal,1.3041999999999998,True,4.61872442,4.61872442,22.990012
Tl2S3,2,bottom-up,P1,1,triclinic,0.17200000000000015,False,4.082572193735096,6.768072375836195,29.564082454289853
BiCl5,2,bottom-up,Pmma,mmm,orthorhombic,0.28910000000000036,False,3.980252,14.657406,23.858436
Cu2Se,2,bottom-up,P6/mmm,6/mmm,hexagonal,0.0,False,4.174797,4.174796526874573,24.537695
BaBr2,2,bottom-up,P-1,-1,triclinic,4.7633,False,9.58404851622621,9.674494141760581,23.523566788863008
NbBr5,2,bottom-up,Pmma,mmm,orthorhombic,0.05320000000000036,False,3.44752166,18.87809979,23.595189
NF3,2,bottom-up,P-6m2,-6m2,hexagonal,0.3324999999999996,True,3.402717,3.402716934862787,24.623946
SrF2,2,bottom-up,P-1,-1,triclinic,5.8589,True,7.329204223321997,7.3834231242369555,23.515205827318653
SmTe,2,bottom-up,P4/nmm,4/mmm,tetragonal,0.0,False,4.26525254,4.26525254,23.293072
AsS,2,bottom-up,C2/m,2/m,monoclinic,0.0,False,3.6788268341679253,3.678826684148222,23.29757368024355
Pt3Se4,2,bottom-up,P2/m,2/m,monoclinic,0.0,False,4.570646,6.80212401397806,25.197611543652805
HgS,2,bottom-up,P4/nmm,4/mmm,tetragonal,1.0631,True,4.46431,4.46431,22.990012
SrCl2,2,bottom-up,Pmma,mmm,orthorhombic,3.6311000000000004,True,4.165886,7.677275,23.548695
Bi4C3,2,bottom-up,C2,2,monoclinic,0.0,False,3.6704639195769246,3.670463501233189,27.835589897788658
ZrS2,2,bottom-up,P4/mmm,4/mmm,tetragonal,0.0,False,3.24021768,3.24021768,22.61712
CrGe3,2,bottom-up,P6/mmm,6/mmm,hexagonal,0.0,False,5.31092588,5.310925603134949,20.0
CrO3,2,bottom-up,Pc,m,monoclinic,0.0,False,5.43197129,5.21276231059675,25.657465475764777
YO3,2,bottom-up,P-1,-1,triclinic,2.3,True,4.293199395917356,7.303190995572404,22.608188352981575
Si3Bi4,2,bottom-up,C2,2,monoclinic,0.0,False,4.426694001123858,4.426693966435376,27.82349194360568
P2O3,2,bottom-up,P1,1,triclinic,2.083,False,4.080324999161341,4.4925720892442005,25.194602270236256
BaLi,2,bottom-up,P4/nmm,4/mmm,tetragonal,0.0,False,4.064566681707904,4.019324,26.540107995067277
V2F5,2,bottom-up,P1,1,triclinic,0.9331999999999998,False,5.195704156140698,5.263151346403555,24.907534490597687
AgHg3,2,bottom-up,P6/mmm,6/mmm,hexagonal,0.0,False,5.93000781,5.930007685388918,20.0
TiP2,2,bottom-up,P-3m1,-3m,trigonal,0.0,False,3.63186144,3.631862442404933,21.950498
In2Te3,2,bottom-up,Cm,m,monoclinic,0.0930000000000002,False,4.432420579955044,7.695199815301614,29.441980967112947
Bi2O3,2,bottom-up,Pmma,mmm,orthorhombic,1.0326999999999997,False,3.55484051,16.49346514,24.60873
NdTe3,2,bottom-up,P6/mmm,6/mmm,hexagonal,0.0,False,6.441450540000001,6.441450052585193,20.0
HgS,2,bottom-up,P3m1,3m,trigonal,0.0,False,4.17760422,4.177604062836244,56.585656
AgCl2,2,bottom-up,P-4m2,-42m,tetragonal,0.0,False,3.67688201,3.67688201,23.530221
GeF4,2,bottom-up,P2_1/c,2/m,monoclinic,4.4548000000000005,True,4.827125623534394,5.352744472947771,22.4628492550299
ScTe,2,bottom-up,P4/nmm,4/mmm,tetragonal,0.0,False,3.9281183431877404,3.928118128819448,23.289565
BeCl2,2,bottom-up,C2,2,monoclinic,5.6143,False,5.088405860000001,5.7972898258680425,24.666004524535605
HfS2,2,bottom-up,P4/mmm,4/mmm,tetragonal,0.0,False,3.192709,3.192709,22.61712
P2O3,2,bottom-up,Pmmn,mmm,orthorhombic,3.6102,False,2.638358,13.525844,21.157874
OsSe2,2,bottom-up,P-3m1,-3m,trigonal,0.0,False,3.544724,3.5447239710709493,22.670328
SmSe,2,bottom-up,P4/nmm,4/mmm,tetragonal,0.0,False,4.047202,4.047202,23.293072
PS,2,bottom-up,Pc,m,monoclinic,1.1574,False,5.639694686328653,18.728877224639085,23.120845
PdSe2,2,bottom-up,P-6m2,-6m2,hexagonal,0.0,False,3.911209,3.916920902446844,22.193332
NbTe2,2,bottom-up,P6/mmm,6/mmm,hexagonal,0.0,False,3.16147,3.161469711351668,24.827437
InF3,2,bottom-up,P2/m,2/m,monoclinic,4.5649,False,4.184175770471169,6.599148384503791,22.947509796627976
SnCl4,2,bottom-up,P2/c,2/m,monoclinic,2.4075,True,7.084986108176219,6.241311243542818,22.457944833536505
SN,2,bottom-up,Aem2,mm2,orthorhombic,0.0,False,3.6188955524234183,3.618895761241404,23.274146718671965
HgTe,2,bottom-up,P4/nmm,4/mmm,tetragonal,0.0,False,4.64120895,4.64120895,22.990012
InAs,2,bottom-up,P4/mbm,4/mmm,tetragonal,0.0,False,8.763655,8.763655,20.0
GaSb,2,bottom-up,P4/mbm,4/mmm,tetragonal,0.0,False,8.8025839,8.8025839,20.0
VCl5,2,bottom-up,Pmma,mmm,orthorhombic,0.09989999999999988,False,3.16577328,12.21938457,23.595189
SbF3,2,bottom-up,P-6m2,-6m2,hexagonal,1.5274,False,4.13340216,4.133401627725668,24.623946
CdS,2,bottom-up,P3m1,3m,trigonal,0.0,False,4.15520311,4.155202955624604,56.585656