Formula,No. of Elements,Discovery Process,Space Group,Point Group,Crystal System,Band Gap,Is Gap Direct?,a,b,c
LiAgF2,3,top-down,P2_1/m,2/m,monoclinic,1.9922,False,2.92420774,6.32742206,24.445888
LiV3(TeO6)2,4,top-down,P-1,-1,triclinic,2.0925,True,6.179941512719494,10.743713073002708,26.404448
CuHO2,3,top-down,P2/m,2/m,monoclinic,0.7869999999999999,False,2.76701884,4.40989938,21.01042
Al2O3,2,top-down,Pc,m,monoclinic,3.6887000000000003,False,3.0569174246415476,5.2489222025080435,25.735537
Tm2Te5O13,3,top-down,P-1,-1,triclinic,3.0866000000000002,False,6.903245572436533,8.57528656019105,30.9594
CuSe,2,top-down,P4/nmm,4/mmm,tetragonal,0.0,False,3.66372813,3.66372813,23.081229
Tl2Cu3(SeO3)6,4,top-down,P-1,-1,triclinic,0.16290000000000004,False,4.804000366033048,9.591746947289312,27.983657
Er(ReO4)2,3,top-down,P-3,-3,trigonal,0.0,False,6.041535549150782,6.0410980896301005,27.219186
ZnW2O5,3,top-down,Amm2,mm2,orthorhombic,1.1627,False,3.48645365,6.127367203419148,23.561219
Sr2MnSO3,4,top-down,P4/nmm,4/mmm,tetragonal,0.0,False,3.96897834,3.96897834,31.173974
Re2NiO8,3,top-down,P-3,-3,trigonal,3.8874000000000004,True,5.73733452,5.737334443115992,27.006738
Dy2(BiO2)7,3,top-down,Cm,m,monoclinic,0.0,False,3.92999367,10.571743147137667,27.922493
NaBi5O8,3,top-down,P-1,-1,triclinic,2.2869,True,7.132884314993253,7.296862933867397,28.27951
SbPb2S2I3,4,top-down,P2_1/c,2/m,monoclinic,2.0307000000000004,True,8.68269451,16.51399787,25.947457
LiMn2F9,3,top-down,P-1,-1,triclinic,1.3346999999999998,False,4.892400586836578,9.222209306985361,27.937044
BaTi2TlO6,4,top-down,Pm,m,monoclinic,0.0,False,3.404869200745276,3.465122424302177,62.946946
Ca3SiBr2,3,top-down,Cm,m,monoclinic,0.0,False,4.488113939739632,4.488114061177006,28.7132
NpIO,3,top-down,P4/nmm,4/mmm,tetragonal,0.0,False,3.99102511,3.99102511,26.080447
TmI2,2,top-down,P-3m1,-3m,trigonal,0.0,False,4.06333559,4.063335025217494,23.842566
Li2Cr3O6,3,top-down,P3,3,trigonal,0.5090000000000003,False,5.142949550831711,5.1414074655523745,23.626658
CaZn2(PO)2,4,top-down,P-3m1,-3m,trigonal,0.0,False,3.1436695100000036,3.141350348404098,30.500847
Sr2Cu(IO)2,4,top-down,P4/mmm,4/mmm,tetragonal,0.0,False,4.04339288,4.04339288,26.889835
Ba2V3O8,3,top-down,P4/mmm,4/mmm,tetragonal,0.0,False,3.8800140088077875,3.8800139952087465,28.358143
LiFe2O2F3,4,top-down,Cm,m,monoclinic,1.4945,False,3.81696083,5.355658848569183,29.790518
MgCo4O9,3,top-down,Pc,m,monoclinic,0.016199999999999548,True,8.252452638641332,8.38466528332984,26.25034
CdCl2,2,top-down,C2,2,monoclinic,3.6664999999999996,True,3.9668416455760243,3.951616123614055,22.750599
P2Pb3O8,3,top-down,P2/c,2/m,monoclinic,3.4609,False,5.80199844,9.50988854,24.907937
Bi6B10O21,3,top-down,P-1,-1,triclinic,1.5769,False,7.147624508204608,15.186617265956981,25.150405
FeTeCl7,3,top-down,P1,1,triclinic,1.2679,False,6.42101117145486,8.267419438487263,27.944966068006796
MgBiPO6,4,top-down,P2_1/m,2/m,monoclinic,0.0,False,5.21879,7.46687998,24.85547
UTeO5,3,top-down,Pbcm,mmm,orthorhombic,1.9803999999999995,True,7.9980729,10.34675386,23.974564
KClO3,3,top-down,P2_1/m,2/m,monoclinic,5.5369,False,4.5353606,5.53559836,24.133514
As2PHO6,4,top-down,P2_1,2,monoclinic,4.5271,False,4.92707118,10.51394379,23.927708
NpI3,2,top-down,Pmmn,mmm,orthorhombic,0.0,False,4.25314408,9.92635089,24.865625
LiV(OF)2,4,top-down,P2_1/m,2/m,monoclinic,2.3533000000000004,False,3.58132954,6.51439782,24.577574
H3BrO,3,top-down,Cm,m,monoclinic,5.2283,False,4.924184492542931,5.048755083081924,21.069315397372137
LiCrO2,3,top-down,P3m1,3m,trigonal,0.0,False,3.00152282,3.00152212511781,23.692024
Nb2Zn2CuO8,4,top-down,P-1,-1,triclinic,0.36660000000000004,False,5.2792084317575645,6.13038599355954,28.526413
Zn2SnN2,3,top-down,C2/m,2/m,monoclinic,0.0820000000000003,False,3.42632978,6.190423757864941,25.661326
GaH5(NF)2,4,top-down,P2/m,2/m,monoclinic,2.8144,True,4.87456116,5.88961318,25.019999
EuIn2Au,3,top-down,Pm,m,monoclinic,0.0,False,3.556244494075578,4.8463622105587945,24.630787
ZnGaNO,4,top-down,Pmc2_1,mm2,orthorhombic,1.1036000000000001,True,3.28387848,5.30680003,23.616964
Co2NiO6,3,top-down,C2/m,2/m,monoclinic,1.2756999999999996,False,2.8060173708392817,7.481483665713244,21.918128
Cu(HO)2,3,top-down,Pmn2_1,mm2,orthorhombic,0.24160000000000004,False,2.95511933,5.35840585,24.835318
YCoF5,3,top-down,Pmmm,mmm,orthorhombic,0.09060000000000024,False,4.41603049,8.21694512,24.38339
Zn2Cu(AsO4)2,4,top-down,P-1,-1,triclinic,0.6177999999999999,False,5.06162457590186,5.362254516945359,24.838848
Mn3SnO8,3,top-down,P3m1,3m,trigonal,0.36050000000000004,False,5.78970557,5.789705343824034,23.170442
LiVF5,3,top-down,P1,1,triclinic,1.9540000000000006,False,6.021736058975781,6.870119639228894,24.538124
NiS2,2,top-down,P2_1/c,2/m,monoclinic,0.8927999999999998,False,5.194049751917018,5.320374082280611,21.102196
HoIO,3,top-down,P4/nmm,4/mmm,tetragonal,3.5927000000000002,False,3.9071762,3.9071762,26.042386
La2GeI2,3,top-down,P-3m1,-3m,trigonal,0.402,False,4.46573021,4.465729780952953,27.49064
KSb3O5,3,top-down,Pc,m,monoclinic,3.2634,False,6.731571283340239,7.483287514550381,26.691694
CoOF,3,top-down,Pmmm,mmm,orthorhombic,1.0354,False,2.86483568,6.28925874,22.750083
Li2CoP2O7,4,top-down,P-42_1m,-42m,tetragonal,3.3301,False,7.657514162240051,7.657399608757438,24.60944
Ba2TlBi2O7,4,top-down,P4/mmm,4/mmm,tetragonal,0.0,False,3.89047306,3.89101939,31.554754
Mn3CoO8,3,top-down,P-3m1,-3m,trigonal,1.1710000000000003,False,5.83807698,5.8380770766677195,21.928558
TaTl(CuS2)2,4,top-down,Pma2,mm2,orthorhombic,1.424,True,5.63418581,7.59237553,28.97644672
Li4CO4,3,top-down,C2,2,monoclinic,3.3461000000000003,False,4.15532815,5.090044057689913,22.971304
NbPO5,3,top-down,P4/nmm,4/mmm,tetragonal,3.3009999999999997,False,6.422462,6.422462,25.895835
MoO3,2,top-down,Pc,m,monoclinic,1.1602999999999999,False,5.40727391,5.47027544,25.488868
Co2NiO6,3,top-down,C2/m,2/m,monoclinic,1.0728,False,5.0386884,4.941948200822716,21.873841
Cr(GaS2)2,3,top-down,P-3m1,-3m,trigonal,0.0,False,3.686132827540677,3.7011076912523193,29.068026
Ca5Ir,2,top-down,Pmc2_1,mm2,orthorhombic,0.0,False,6.79066775,7.54190217,25.78836
Sr2Cu2WO7,4,top-down,Pm,m,monoclinic,0.0,False,5.220121125445197,5.3130660022757725,29.861869
Al2S3,2,top-down,P1,1,triclinic,0.7579999999999999,True,6.6693197423630215,7.012356606256733,38.277146
Bi2PdO4,3,top-down,P42_12,422,tetragonal,0.492,True,8.16675585,8.16675585,22.09732
BaUI6,3,top-down,P1,1,triclinic,0.2910999999999997,False,8.052258993364969,8.167678864613197,23.706492
LiCo7O7F,4,top-down,P3m1,3m,trigonal,0.0,False,3.27084144,3.270841596931707,60.139177
Mg(SbO2)2,3,top-down,Pbcm,mmm,orthorhombic,3.115,False,10.68249506304568,10.171637242936413,22.332211
KCSN,4,top-down,Pbcm,mmm,orthorhombic,4.5662,True,6.041588,7.52912948,25.413918
BaBi4O7,3,top-down,P3m1,3m,trigonal,1.9396,False,7.83124212,7.83124277029268,25.894188
Al(HO)3,3,top-down,Cm,m,monoclinic,4.3458,False,4.92554103,5.113083570080041,23.931699
TiAu,2,top-down,P4/nmm,4/mmm,tetragonal,0.0,False,2.9495772,2.9495772,24.42588
VBr2,2,top-down,P-3m1,-3m,trigonal,1.2040000000000002,False,3.817159552139397,3.8171588456994376,22.903114
CuClO2,3,top-down,P222_1,222,orthorhombic,0.7812999999999999,False,3.51861036,6.92082161,22.721063
BiAuO2,3,top-down,P2_1/m,2/m,monoclinic,1.6343,False,3.57117569,6.48720259,23.754256
Mg5(HO3)2,3,top-down,P-3m1,-3m,trigonal,2.6086,True,3.02879495,3.028794991187502,33.887678
SbOF3,3,top-down,P-1,-1,triclinic,2.732,True,7.804273384975098,8.148633676923021,25.548342
Ti4ZnO9,3,top-down,P4/n,4/m,tetragonal,2.7057,True,8.53767594,8.53767594,25.494038
AgPb4ClO4,4,top-down,P4/n,4/m,tetragonal,2.8222,False,8.19389692,8.19389692,26.380028
C,1,top-down,Cmme,mmm,orthorhombic,0.0,False,3.549615132411781,3.549615733933528,22.53218794
Si3H,2,top-down,P-3m1,-3m,trigonal,0.9227,False,3.87310855,3.873108702114947,30.20125313
Na3InCl6,3,top-down,P312,32,trigonal,3.8717,False,6.97613465,6.976134537410103,23.04931304
LaCrBiO6,4,top-down,Pc,m,monoclinic,1.7446,False,5.7607874228596625,6.395928889190687,27.090384
AgF2,2,top-down,P2_1/c,2/m,monoclinic,0.0,False,3.76225811,5.87918709,21.478355
Mn2ZnO5,3,top-down,Pmmn,mmm,orthorhombic,0.11319999999999997,True,3.66794457,11.71743795,26.432177
Re3(TeBr)7,3,top-down,P-3,-3,trigonal,1.1539000000000001,False,10.36550718,10.365507650456612,28.909574
Li2VF6,3,top-down,Pmmn,mmm,orthorhombic,2.2500999999999998,False,5.54212702,5.48798598,27.599613
LiV2O4,3,top-down,P2_1/m,2/m,monoclinic,0.9385999999999999,True,5.033734930556385,6.039683564360785,25.960601
CrO2,2,top-down,C2/m,2/m,monoclinic,1.021,False,2.8607260052435652,2.971464006769887,21.911947
Li3TeHO4,4,top-down,P2_1/m,2/m,monoclinic,3.9792,False,5.482248806712852,6.3558811,25.393620153781168
RbAuS,3,top-down,Pmma,mmm,orthorhombic,1.9993,False,6.42810305,7.92005954,20.0
Cr(WO4)2,3,top-down,P-1,-1,triclinic,1.1433,False,4.9182053474390965,5.125266026004292,25.403203
V2Zn2O7,3,top-down,P2/m,2/m,monoclinic,1.9529999999999994,False,5.039142112191317,5.909425832029019,25.474894
Cu4Bi7S12,3,top-down,P2/m,2/m,monoclinic,0.0,False,3.95345777,15.402006302202983,27.61200039073552
Si3Sb2O9,3,top-down,P-6,-6,hexagonal,4.665,True,6.99155749,6.991557394997782,24.916875
NdTeBrO3,4,top-down,P4/nmm,4/mmm,tetragonal,0.5289000000000001,False,3.91231461,3.91231461,64.81372
Cr3O7,2,top-down,Pmn2_1,mm2,orthorhombic,0.35499999999999954,True,5.23456599,10.47448862,24.208643
Zn2Sn3O8,3,top-down,P2/m,2/m,monoclinic,2.1774,True,5.4761432,6.35060809,24.021355
Sr2CoClO3,4,top-down,P4/nmm,4/mmm,tetragonal,0.0,False,3.83620054,3.83620054,32.583095
LiH2IO,4,top-down,Pmc2_1,mm2,orthorhombic,3.1079,True,4.36844766,5.82485246,24.019953
VOF3,3,top-down,P2_1,2,monoclinic,2.5672999999999995,False,4.558501966013185,4.595608195831453,24.118468
Sr2Cr2GaO7,4,top-down,Pmc2_1,mm2,orthorhombic,0.0,False,5.282903704008385,5.348655261948211,28.646997
YbClO,3,top-down,P-3m1,-3m,trigonal,0.0,False,3.82926623,3.8292666145840344,26.37345107
AgCl,2,top-down,Pmma,mmm,orthorhombic,0.9836999999999998,False,3.70151879,3.76906436,23.1333341
KHCO2,4,top-down,Pmma,mmm,orthorhombic,4.6673,False,5.81494128,7.41883972,18.4498594
Ti2O7,2,top-down,P-1,-1,triclinic,1.1968999999999994,False,6.017387399919302,6.054010055542437,30.894866
Tl2SiS3,3,top-down,P-1,-1,triclinic,2.8831,False,6.550585049188359,8.326106300302005,24.12448329996037
Ti3V2O9,3,top-down,P2/c,2/m,monoclinic,1.1011000000000002,True,5.13283518,6.712033799967883,28.429178720000937
HfIN,3,top-down,P-3m1,-3m,trigonal,2.0543,False,3.70220928,3.702209317579877,27.0029313
SmClF,3,top-down,P4/nmm,4/mmm,tetragonal,0.0,False,3.62987573,3.62987573,26.01247
RbSbBrF3,4,top-down,P-1,-1,triclinic,3.7601,False,4.40806276203911,7.520451559273328,26.383072874819145
Ag2PdO2,3,top-down,Pmmm,mmm,orthorhombic,0.39419999999999966,False,3.05296289,4.338279158119323,23.20567279946646
Np(OF)2,3,top-down,P2/m,2/m,monoclinic,0.0,False,3.7395763045863104,4.3535833,23.246611231092036
SnSe,2,top-down,Pmn2_1,mm2,orthorhombic,1.1474000000000002,False,4.22476818,4.50601574,22.78733416
CrCo3O8,3,top-down,P-3m1,-3m,trigonal,0.0,False,5.71858494,5.71858458457085,21.82467644
ScHO2,3,top-down,P1,1,triclinic,2.1696999999999997,False,3.457037391038467,3.8107220675061777,25.762438
LiV2OF5,4,top-down,Cm,m,monoclinic,2.0333,False,5.30155510004515,5.342072917894824,23.335555
BaCu,2,top-down,P6/mmm,6/mmm,hexagonal,0.0,False,4.38325526,4.3832550639043415,24.53210634
LiAg(CO2)2,4,top-down,P-1,-1,triclinic,2.1517,False,5.62004365406464,9.857309232010708,21.239826427929195
ZnH,2,top-down,P6mm,6mm,hexagonal,0.0,False,2.69020401,2.690204225522536,21.790585
W3O8,2,top-down,P-1,-1,triclinic,2.6609,False,4.980978027634341,5.45872663817402,25.19282455307208
Rb3Mn2Cl7,3,top-down,P4/mmm,4/mmm,tetragonal,0.7167000000000001,False,4.79435328,4.79435328,30.48603088
TlBr,2,top-down,P4/nmm,4/mmm,tetragonal,2.9148,False,4.64196612,4.66635106,23.438057
SnO2,2,top-down,P-3m1,-3m,trigonal,2.6195,False,3.22938401,3.2293846696095625,22.030689
WO3,2,top-down,P-6m2,-6m2,hexagonal,0.0,False,3.54553861,3.5455385810125573,23.610757
Mg(SnN)2,3,top-down,P-4m2,-42m,tetragonal,0.0,False,3.32613346,3.32613346,25.041807
VBrO,3,top-down,Pmmn,mmm,orthorhombic,1.4632999999999998,False,3.45605745,3.83416531,25.593804
LaIO,3,top-down,P4/nmm,4/mmm,tetragonal,3.367,True,4.15010818,4.15010818,26.203078
AgHgSI,4,top-down,Pmma,mmm,orthorhombic,0.8623000000000001,False,4.52647532,10.23672011,30.66892793
SnClF,3,top-down,P4/nmm,4/mmm,tetragonal,2.5689,False,3.94469358,3.94469358,25.145386
NiSe,2,top-down,P4/nmm,4/mmm,tetragonal,0.0,False,3.66297142,3.66297142,22.999456
SrSbSe2F,4,top-down,P4/nmm,4/mmm,tetragonal,0.05819999999999992,True,4.09937732,4.09937732,31.433081
CaBi2O5,3,top-down,Amm2,mm2,orthorhombic,0.0,False,4.11515872,6.076563839441651,24.11379055
NbIO2,3,top-down,P2_1/m,2/m,monoclinic,0.9231,False,3.80973729,3.97156111,27.400193
CrCuSe2,3,top-down,P3m1,3m,trigonal,0.0,False,3.81674861,3.816748236938066,25.082471
ErTe3,2,top-down,Pmma,mmm,orthorhombic,0.0,False,4.01159619,4.60028372,30.429997
ScHO2,3,top-down,Pmn2_1,mm2,orthorhombic,4.1941,True,3.2793933,4.00977386,26.10339
Na3(TiS2)10,3,top-down,Cm,m,monoclinic,0.0,False,5.9440060360247235,9.053868885137298,29.430322685203752
BiBO3,3,top-down,P2_1/c,2/m,monoclinic,3.7412,False,4.98627844,8.276045948165656,23.59741379191244
CuCO3,3,top-down,P2_1/c,2/m,monoclinic,0.02770000000000028,False,6.52941045,8.370132911050968,23.3173977145346
LiCoO2,3,top-down,P3m1,3m,trigonal,0.23570000000000002,False,3.00518421,3.005184412628194,23.662381
MoF5,2,top-down,Pmma,mmm,orthorhombic,1.4201000000000006,True,3.57701495,8.48908465,23.603522
ZnWO4,3,top-down,Pmna,mmm,orthorhombic,2.3712,False,5.45498513,7.12542649,23.72655083
TlAsO4,3,top-down,P-42m,-42m,tetragonal,1.4708999999999994,False,4.66472978,4.66472978,22.22090087
Zn(InS2)2,3,top-down,P2/m,2/m,monoclinic,1.8671,True,3.90313512,6.73792487,29.49486
FeCl3,2,top-down,P-31m,-3m,trigonal,0.39590000000000014,False,6.082729070000006,6.082728397972933,22.757879
Li2Mn3F8,3,top-down,P-3m1,-3m,trigonal,3.8441,True,6.39892357,6.398923508181579,21.71985365
LuFeGe2,3,top-down,P4/nmm,4/mmm,tetragonal,0.0,False,4.05027872,4.04612785,26.923464
SbF4,2,top-down,P422,422,tetragonal,2.4926,False,5.138482465501037,5.156650506154874,22.371357
Sb2S2O,3,top-down,P2_1/m,2/m,monoclinic,1.8263,False,4.092586761720497,10.138928170954458,23.478738
VO2,2,top-down,P-1,-1,triclinic,1.0575999999999999,False,5.232351947703068,5.872390280630861,21.958543
Ba2Cr3O7,3,top-down,Pmm2,mm2,orthorhombic,0.0,False,3.780065767992913,3.8123942160388373,29.45145
GaTe,2,top-down,C2/m,2/m,monoclinic,1.8617000000000001,False,4.12106218,12.073356080776495,25.457988
CuTe2Br,3,top-down,P222_1,222,orthorhombic,0.8130000000000002,False,5.15760862,8.28190412,22.97503
Mn(ReO4)2,3,top-down,P-3,-3,trigonal,3.0592999999999995,False,5.9232782,5.923278951726567,27.11913
Ba(MoO2)4,3,top-down,P-31m,-3m,trigonal,0.0,False,5.79905496,5.799054305108316,24.629999
TaFeTe3,3,top-down,P2_1/m,2/m,monoclinic,0.0,False,3.47081111,10.373746,24.499633
SbO2,2,top-down,P2_1/m,2/m,monoclinic,1.4370000000000003,False,3.20260221,10.637772007436569,22.750005999538626
BiO2,2,top-down,P-3m1,-3m,trigonal,0.0,False,3.5795078950189394,3.5792409085964882,21.972984
Li4Fe(PO4)2,4,top-down,P-1,-1,triclinic,4.1115,False,4.900485632694665,6.123662788044965,21.654072165804685
CoF4,2,top-down,P4/mbm,4/mmm,tetragonal,1.6995999999999993,False,5.4951235492517325,5.495857546072784,22.43107
Mn3VO8,3,top-down,P-3m1,-3m,trigonal,0.0,False,5.83268222465579,5.86914506683522,21.936704
MoO2,2,top-down,C2/m,-1,monoclinic,1.0829000000000004,False,5.485475574713675,6.526788520944838,21.902563458265877
MnTlO3,3,top-down,P-31m,-3m,trigonal,0.0,False,5.15362202,5.153622234812959,24.291247
YCo,2,top-down,P6/mmm,6/mmm,hexagonal,0.0,False,3.93672768,3.93678404565057,23.168812647494214
KC2N3,3,top-down,P2_1/m,2/m,monoclinic,4.2912,True,3.97291141,8.50088682,24.375925
TbHO2,3,top-down,Pmmn,mmm,orthorhombic,3.4007,True,3.6067982174640387,4.26165683,27.82017734068472
NaHgCl3,3,top-down,P2_1/m,2/m,monoclinic,2.8327,True,3.99215061,7.35171877,27.270928
NaCSN,4,top-down,Pmn2_1,mm2,orthorhombic,4.105,False,3.97154914,5.78213435,24.559851
ZrF4,2,top-down,P4/mmm,4/mmm,tetragonal,4.3479,False,4.22064647,4.22064647,23.891423
CuAsO3,3,top-down,P-31m,-3m,trigonal,0.0,False,5.067881516579952,5.067653261698696,23.910258
W(BrO)2,3,top-down,Pmc2_1,mm2,orthorhombic,0.8546999999999993,False,3.84904781,7.69350891,24.96619228
CrO3,2,top-down,P-6m2,-6m2,hexagonal,0.0,False,3.38613153,3.38613127770617,23.39152754
Sn(BiTe2)2,3,top-down,P-3m1,-3m,trigonal,0.7931,False,4.44902872,4.44902878494204,31.30794
Ni(WO4)2,3,top-down,P-1,-1,triclinic,1.2930000000000001,True,4.8106652071842655,5.053930088738684,25.28744432774385
Ba2ZrS4,3,top-down,P4/mmm,4/mmm,tetragonal,0.0,False,5.0025854,5.0025854,29.28336637
Sc5NCl8,3,top-down,P2/m,2/m,monoclinic,0.0,False,3.4888548,11.915097014067992,25.520572467245493
NbVO5,3,top-down,P4/n,4/m,tetragonal,1.9223,True,6.77126824,6.77126824,27.3220872
UTe3,2,top-down,Pmmn,mmm,orthorhombic,0.0,False,4.20363146,6.1328898,26.917491
SrH2I2O,4,top-down,Pmn2_1,mm2,orthorhombic,4.2762,True,4.43365401,9.27077051,23.729878
BiF5,2,top-down,Pmmm,mmm,orthorhombic,0.0,False,3.8956323,4.7178996,24.01363511
CaLaI5,3,top-down,Pmc2_1,mm2,orthorhombic,2.1965,True,4.45328242,18.11849053,24.677675
Mn(CO3)2,3,top-down,P2_1/c,2/m,monoclinic,1.4049000000000005,False,6.81948598,7.36017901,22.684709
Co3SbO8,3,top-down,P-3m1,-3m,trigonal,0.0,False,6.00000757,6.0000070368468945,22.10759755
TiZn(BiO3)2,4,top-down,P4mm,4mm,tetragonal,0.0,False,5.60686776,5.60686776,24.141421
U(SbO3)2,3,top-down,C2/m,2/m,monoclinic,2.0818,False,4.04337129,6.8887783490947045,23.249177416512882
TlPt2Se3,3,top-down,P-3m1,-3m,trigonal,1.4110000000000003,False,7.45484611,7.454845741549189,24.18334
Ta2PdSe6,3,top-down,C2/m,2/m,monoclinic,0.07950000000000035,False,3.40283644,9.737865947082371,23.910145
Sn3P4,2,top-down,C2,2,monoclinic,0.2819,False,4.063069453587943,4.063069303914524,27.827615
SrBi5O9,3,top-down,Pm,m,monoclinic,0.0,False,4.045531361280747,6.882184119747362,26.886843616626653
Ba2Fe3O8,3,top-down,P4/mmm,4/mmm,tetragonal,0.0,False,3.8894941516334747,3.889494547009165,28.408565
Li2MnF6,3,top-down,P-3m1,-3m,trigonal,3.1102999999999996,False,5.773015033969435,5.773015007012318,21.30551100869403
Be2Te7Cl6,3,top-down,P2/m,2/m,monoclinic,1.3979,False,5.43624514,16.54341812,22.861964
Li3Fe3(OF)4,4,top-down,Pm,m,monoclinic,1.6273,True,3.04746926,5.03413511,28.480105
Li2H2Pt,3,top-down,P4/mmm,4/mmm,tetragonal,0.0,False,3.09824863,3.1760539,23.13664104
V2O5,2,top-down,Pmmn,mmm,orthorhombic,1.5077999999999996,False,2.880090441287754,11.322993740556925,23.904205791567268
U(OF)2,3,top-down,P2/m,2/m,monoclinic,2.0707000000000004,True,3.4172395,4.06646903341564,22.481093531441697
Ag3SI,3,top-down,P1,1,triclinic,0.6053000000000002,True,4.373193656915023,4.596508544363249,29.898583
Ba2HfS4,3,top-down,P4/mmm,4/mmm,tetragonal,0.0,False,4.93831378,4.93831378,31.354538
Mo2H2O7,3,top-down,P2_1,2,monoclinic,2.2552999999999996,False,3.80130927,9.28033637,25.753149
TmBiO3,3,top-down,P-3,-3,trigonal,3.2879,False,5.9754590400000005,5.9754594653711495,25.771849
ZnBr2,2,top-down,P-3m1,-3m,trigonal,3.4767,False,3.77226576,3.7722656639683447,23.05612705
LiVF6,3,top-down,Cm,m,monoclinic,3.360899999999999,True,5.640147959539512,5.627225739836553,23.120735
Nb3Cl8,2,top-down,P3m1,3m,trigonal,0.23690000000000033,False,6.78542081,6.785421025606393,23.495167
HoCoSn2,3,top-down,Pmmn,mmm,orthorhombic,0.0,False,4.56349033,4.34256843,29.064009
V3Zn2O8,3,top-down,P2/m,2/m,monoclinic,1.4234,True,5.105229055555048,5.99216336,21.83693523139668
InTeClO3,4,top-down,Pmna,mmm,orthorhombic,3.2566,False,6.94367888,7.16414312,26.699747
Ta2NiSe5,3,top-down,Pmmn,mmm,orthorhombic,0.0,False,3.5087888967098944,15.731750311329218,24.427248
Mn2CrO6,3,top-down,P-31m,-3m,trigonal,0.8647,False,5.06253156,5.062276804811649,21.922393