Formula,No. of Elements,Discovery Process,Space Group,Point Group,Crystal System,Band Gap,Is Gap Direct?,a,b,c
BeCl2,2,bottom-up,Pmma,mmm,orthorhombic,4.4098,True,3.382333,5.503864,23.548695
FeTe2,2,bottom-up,P-3m1,-3m,trigonal,0.0,False,3.6359679937959597,3.634758379507989,22.67033279826306
CoSi3,2,bottom-up,P-6m2,-6m2,hexagonal,0.0,False,3.683057530071444,3.6830570061488084,24.981638000000082
AgF2,2,bottom-up,P-4m2,-42m,tetragonal,0.0,False,4.114291238406806,4.114289188407208,23.530221000003397
TeW,2,bottom-up,P4/nmm,4/mmm,tetragonal,0.0,False,3.8992092556465856,3.89920825563511,23.35462700007975
BeI2,2,bottom-up,Pmma,mmm,orthorhombic,2.057,False,3.995701990013057,6.49269802002657,23.548695000120716
Sn3Rh,2,bottom-up,P-6m2,-6m2,hexagonal,0.0,False,4.33272852,4.332728837727658,24.981638
Rb2Br,2,bottom-up,P-3m1,-3m,trigonal,0.0,False,4.7547299800000005,4.7547294437682135,23.407847
BiW,2,bottom-up,P4/nmm,4/mmm,tetragonal,0.0,False,3.2987601969291434,3.3040634455084246,23.75832275159806
In2Se3,2,bottom-up,P1,1,triclinic,0.40840000000000004,False,6.660822524544324,8.521554329218542,38.11169682534084
SbMo,2,bottom-up,C2/m,2/m,monoclinic,0.0,False,3.2233393281986986,3.2235282588641865,24.046764289783326
MgF2,2,bottom-up,Pmma,mmm,orthorhombic,5.9279,True,3.0351789800379643,5.406279770075358,23.548695000519036
CeTe2,2,bottom-up,Fmm2,mm2,orthorhombic,0.0,False,4.2366329,4.227466162228361,23.421783949152193
CrC3,2,bottom-up,P-6m2,-6m2,hexagonal,0.0,False,4.01487505577693,4.010975679942869,20.00004110678896
PBr5,2,bottom-up,Pmmm,mmm,orthorhombic,0.0,False,3.696927951103454,8.444899780576367,23.758606000000043
ZrI4,2,bottom-up,P4/mmm,4/mmm,tetragonal,0.30390000000000006,False,5.821387370000018,5.821387420000026,23.891423000000035
AsW,2,bottom-up,C2/m,2/m,monoclinic,0.01599999999999957,False,3.267669916240321,3.2669362225254575,23.629644222691823
NiBi,2,bottom-up,P-6m2,-6m2,hexagonal,0.0,False,4.2873600001998895,4.2916016960633705,20.0000002045405
Zn3Cu,2,bottom-up,P6/mmm,6/mmm,hexagonal,0.0,False,5.0472217415811595,5.046947791100919,20.000000000232127
B2Se3,2,bottom-up,P1,1,triclinic,0.0,False,3.274058854737648,5.93777686354868,29.429644537568084
AsBr5,2,bottom-up,Pmmm,mmm,orthorhombic,0.0,False,6.847648111938985,5.211149299541976,23.758606000000057
Os3Se4,2,bottom-up,P-3m1,-3m,trigonal,0.0,False,3.801168022626938,3.8011369764136758,27.54202200438673
Ru3Se4,2,bottom-up,P-3m1,-3m,trigonal,0.0,False,3.7312950500365987,3.7313381457892505,27.542021914931812
HfAs2,2,bottom-up,P-3m1,-3m,trigonal,0.0,False,3.663806759030106,3.6638077858881593,21.950498097439663
GeI4,2,bottom-up,P2/c,2/m,monoclinic,0.0,False,6.462076266117726,7.974821742409167,22.46635790918292
TlF3,2,bottom-up,P1,1,triclinic,2.656599999999999,False,4.3327527805951185,6.891759605488624,22.87859310771709
WCl5,2,bottom-up,Pmmm,mmm,orthorhombic,0.0,False,3.176852511072555,9.243888062478092,23.822045000001697
PF5,2,bottom-up,Pmmm,mmm,orthorhombic,0.0,False,3.0768760005851714,5.275560003018541,23.758606002476682
BiO2,2,bottom-up,P3m1,3m,trigonal,0.1473,False,6.9129410000794165,6.91292717460064,22.984904000275876
CoSn3,2,bottom-up,P-6m2,-6m2,hexagonal,0.0,False,4.172477000000119,4.172477181838386,24.981638
SnI4,2,bottom-up,Pban,mmm,orthorhombic,0.0,False,6.440733282435627,8.310092357138156,22.363126308416497
B13N2,2,bottom-up,P-3m1,-3m,trigonal,0.0,False,3.9441460007764673,3.9441448648083406,25.08561800433406
TiSb2,2,bottom-up,P-3m1,-3m,trigonal,0.0,False,4.074974003079896,4.074980110036613,21.9504980025914
W3O8,2,bottom-up,P-3m1,-3m,trigonal,2.5728999999999997,False,6.07621993125076,6.140966500365068,22.275550120155394
MoI5,2,bottom-up,Pm,m,monoclinic,0.0,False,3.5173143445801087,11.150320846706789,23.822025860123777
Ga13N2,2,bottom-up,P-3m1,-3m,trigonal,0.0,False,6.739010543721979,6.686675750881749,25.08582484352448
CaF2,2,bottom-up,C2/m,2/m,monoclinic,6.982,False,3.7677042122053637,3.767450614118703,24.52937053056257
TlN,2,bottom-up,P2_1/c,2/m,monoclinic,1.0122,False,6.857177000911818,6.621266166637768,19.901505242053098
SbBr3,2,bottom-up,P-6m2,-6m2,hexagonal,0.9074,True,5.088295,5.088293250087892,24.623946
Be2P,2,bottom-up,P-4m2,-42m,tetragonal,0.0,False,3.854217154223929,3.854559145699933,22.957399000809716
Ge3Rh,2,bottom-up,P-6m2,-6m2,hexagonal,0.0,False,4.015134391099826,4.015161234716325,24.981638000255
NF5,2,bottom-up,Pmmm,mmm,orthorhombic,0.0,False,2.725958464170355,5.86338910066644,23.75860600031572
HfBi2,2,bottom-up,P-3m1,-3m,trigonal,0.0,False,3.3615316200001892,3.361530911715744,21.950498000000966
WBr5,2,bottom-up,Pmmm,mmm,orthorhombic,0.0,False,3.3645392326046193,9.721917928590823,23.821981220237863
BiPt,2,bottom-up,P-6m2,-6m2,hexagonal,0.0,False,4.5357423200000495,4.539404245332357,20.000000000182336
TaBr5,2,bottom-up,Pmmm,mmm,orthorhombic,0.0,False,3.4905577429577064,9.875142241299919,23.745806000000023
SrF2,2,bottom-up,C2/m,2/m,monoclinic,6.6054,False,4.030116510803553,4.029686952442008,24.616092336992388
Ta2O3,2,bottom-up,Fmm2,mm2,orthorhombic,0.0,False,6.439066101780607,6.486782493366034,20.28916212405767
Ta4O9,2,bottom-up,P4/n,4/m,tetragonal,0.3931,False,9.145479610361226,9.14590195055539,24.323978001506863
AsCl5,2,bottom-up,Pmmm,mmm,orthorhombic,0.0,False,3.614010578153928,7.932311362510821,23.75860600000023
Mg2N,2,bottom-up,P-4m2,-42m,tetragonal,0.0,False,3.5384256375459464,3.5298692291068203,22.957399000000578
CrBr5,2,bottom-up,P2/m,2/m,monoclinic,0.0,False,6.29597724703612,5.217176758426216,23.822045040166156
AsI5,2,bottom-up,Pmmm,mmm,orthorhombic,0.0,False,6.379845596704526,6.109677400028344,23.758606000000004
GaI3,2,bottom-up,P2/m,2/m,monoclinic,1.3872,True,4.15799229225112,8.456768876211363,22.8605759977523
Br3N,2,bottom-up,P1,1,triclinic,0.9584999999999999,False,3.934443599993651,3.942684740531634,25.828624901088947
SbBr5,2,bottom-up,P2/m,2/m,monoclinic,0.01720000000000077,True,7.196518278194702,5.545164940497066,23.895361899111272
PO2,2,bottom-up,P3m1,3m,trigonal,0.0,False,5.482426800005795,5.482427052347931,22.984904000022397
In2O3,2,bottom-up,P321,32,trigonal,1.6259000000000001,True,5.781230500000091,5.781195750968672,24.184471000028868
TeMo,2,bottom-up,P4/nmm,4/mmm,tetragonal,0.0,False,3.89084094089506,3.890840666914165,23.354627771656762
BaI2,2,bottom-up,Pmma,mmm,orthorhombic,1.9404000000000003,True,4.80619568000002,8.935206540000008,23.54869500000012
CrF5,2,bottom-up,P2/m,2/m,monoclinic,0.0,False,3.1819278123682473,5.602431348271301,23.82167549864762
Te4Os3,2,bottom-up,P-3m1,-3m,trigonal,0.0,False,4.065978650041039,4.065977220816557,27.542022000011134
CoPb3,2,bottom-up,P-6m2,-6m2,hexagonal,0.0,False,4.257959890594688,4.257959564378137,24.98163800000196
AuO2,2,bottom-up,Pmmm,mmm,orthorhombic,0.0,False,2.5645947500110453,7.575588030852792,20.000000002392873
NbBr5,2,bottom-up,Pmmm,mmm,orthorhombic,0.0,False,3.510648044994681,9.636367646109973,23.74580600001118
BiPd,2,bottom-up,P-6m2,-6m2,hexagonal,0.0,False,4.521871390003924,4.528084809422204,20.000000000066827
InN,2,bottom-up,P2_1/c,2/m,monoclinic,0.6444000000000001,False,7.037081000018261,7.05241479386139,20.098857126590087
Zn3Ag,2,bottom-up,P6/mmm,6/mmm,hexagonal,0.0,False,5.257611300071741,5.257614672159417,20.000000000004754
InBr3,2,bottom-up,P1,1,triclinic,1.5606999999999998,False,5.378459893381369,7.7759900855376225,22.989644286887046
RbBe,2,bottom-up,P2_1/m,2/m,monoclinic,0.0,False,4.174579587677355,3.446828271874631,25.965449422534647
ZrO2,2,bottom-up,P-3m1,-3m,trigonal,4.123,False,3.2982460000075795,3.298246188388914,21.937284000000773
Zn3N,2,bottom-up,P6/mmm,6/mmm,hexagonal,0.0,False,4.753831220001014,4.753827994276486,20.000000000000096
Te2Os,2,bottom-up,P-3m1,-3m,trigonal,0.0,False,3.857007,3.857006711397454,22.670328
Nb2O3,2,bottom-up,C2,2,monoclinic,0.23439999999999994,False,6.597409024373406,6.606499412673248,20.29445196077061
ZrO2,2,bottom-up,P2_1/m,2/m,monoclinic,4.1033,False,5.712693833530805,6.595624110004978,21.973675175016428
I5N,2,bottom-up,P2/m,2/m,monoclinic,0.0,False,4.672209250311141,9.999620258054904,23.758556264134466
NO2,2,bottom-up,P-1,-1,triclinic,2.3076,False,3.380609127034417,11.53959949226363,23.27223949158847
NO2,2,bottom-up,P1,1,triclinic,0.0,False,5.789767026599845,5.5406289856917175,23.316536081926493
ZrBi2,2,bottom-up,P-3m1,-3m,trigonal,0.0,False,3.3968340000001476,3.3968349014559127,21.950498000000227
La5F8,2,bottom-up,P2/m,2/m,monoclinic,0.0,False,3.8613563460012417,13.514197401378457,25.19411025659663
CuF2,2,bottom-up,P-4m2,-42m,tetragonal,0.19589999999999996,False,3.583826009077729,3.5817360009562402,23.530221070912596
CrBi,2,bottom-up,C2/m,2/m,monoclinic,0.0,False,3.3271546651649664,3.3264720181011596,23.664194400006814
SrBr2,2,bottom-up,C2,2,monoclinic,4.213,True,7.246806552475744,5.118470221834969,26.413867007614602
PbI4,2,bottom-up,Pban,mmm,orthorhombic,0.0,False,6.463282110911873,8.396270005224334,22.39592147790767
InCl3,2,bottom-up,Pm,m,monoclinic,2.4989000000000003,True,5.081511946095862,7.381677361187484,23.002892311775785
TaI5,2,bottom-up,Pmmm,mmm,orthorhombic,0.0,False,3.7531253065573233,10.82791299717845,23.74202839210942
Zn3Sb,2,bottom-up,P6/mmm,6/mmm,hexagonal,0.0,False,5.487560000754616,5.491376208431635,20.00000000000145
CrI5,2,bottom-up,P2/c,2/m,monoclinic,0.0,False,5.134418699728175,12.30563726589941,23.52370612187535
SrI2,2,bottom-up,C2/m,2/m,monoclinic,2.8825000000000003,False,4.4897387993735345,8.63196508152072,24.22251387969877
RhC3,2,bottom-up,P-6m2,-6m2,hexagonal,0.0,False,3.467062420084072,3.467064950821189,24.98163800060261
HfSb2,2,bottom-up,P-3m1,-3m,trigonal,0.0,False,3.2776091200045543,3.277609052545705,21.950498000041627
Mo3O8,2,bottom-up,P-3m1,-3m,trigonal,1.5408,False,6.02584950500577,6.08780157338218,22.27552779989963
B13As2,2,bottom-up,P-3m1,-3m,trigonal,0.0,False,4.876814960000443,4.87681053071339,25.085618000004544
CO2,2,bottom-up,P3m1,3m,trigonal,0.028400000000000425,True,4.828364000002589,4.828386386189593,22.029164000025535
VCl5,2,bottom-up,Pmmm,mmm,orthorhombic,0.0,False,3.2170885027411043,8.848048891001337,23.74580602098872
IrC3,2,bottom-up,P-6m2,-6m2,hexagonal,0.0,False,3.457785002790804,3.4577849448651374,24.981638000361166
P4C3,2,bottom-up,C2,2,monoclinic,0.0,False,2.853908149801777,2.853575536689015,28.04089997712586
YbF3,2,bottom-up,P-1,-1,triclinic,0.007500000000000284,True,6.634872593671378,6.507458629203845,22.857640309010712
Os3S4,2,bottom-up,P-3m1,-3m,trigonal,0.0,False,3.6057396000147595,3.605739586738513,27.54202200001392
SbW,2,bottom-up,C2/m,2/m,monoclinic,0.0,False,3.240180494747939,3.2400246154307224,24.123185140155808
VTe2,2,bottom-up,P6/mmm,6/mmm,hexagonal,0.0,False,3.294542,3.294541942985398,24.827437
TlBr3,2,bottom-up,P1,1,triclinic,0.9263999999999992,False,5.261657437336452,8.140144323151834,22.991596295494404
VSe2,2,bottom-up,P6/mmm,6/mmm,hexagonal,0.0,False,2.983554284854877,2.9836280357441765,24.82743700000001
ZrO,2,bottom-up,P4/nmm,4/mmm,tetragonal,0.0,False,3.086236101295808,3.086235744494019,33.65844799124456
BiMo,2,bottom-up,C2/m,2/m,monoclinic,0.0,False,3.2913197913862637,3.2961108891168376,24.05638401275453
AgO2,2,bottom-up,Pmmm,mmm,orthorhombic,0.0,False,2.60781801166224,7.119233186831431,20.000000614365614
CO2,2,bottom-up,C2,2,monoclinic,5.5163,False,4.040624403469934,4.04066951604634,24.56344912656946
MgI2,2,bottom-up,C2,2,monoclinic,2.8531999999999997,False,6.3809383557977215,7.598186925108622,24.60493623080869
AsF5,2,bottom-up,Pmmm,mmm,orthorhombic,0.0,False,3.472602000835253,4.707602001128493,23.75860600003041
CrBi2,2,bottom-up,P-1,-1,triclinic,0.0,False,5.8612041872923175,3.4491753140849477,23.42082319281739
Ge3N4,2,bottom-up,P-6m2,-6m2,hexagonal,0.8839000000000001,False,6.1676060001823245,6.167660460945787,20.011135001984695
SO3,2,bottom-up,P31m,3m,trigonal,1.4266999999999994,True,5.833960818608435,5.83621172109437,23.517853066475197
Br3N,2,bottom-up,P2_1/c,2/m,monoclinic,1.3628,False,7.160896650708856,10.617369800613142,23.70632655963087
GeC,2,bottom-up,P-6m2,-6m2,hexagonal,2.1289,True,3.241780000152077,3.2417745918342318,20.769747000034783
Zn3As,2,bottom-up,P6/mmm,6/mmm,hexagonal,0.0,False,5.231480000062794,5.231481338039734,20.000000000041652
B2O3,2,bottom-up,Cm,m,monoclinic,4.186299999999999,False,2.412619404951771,5.0831176659371335,23.09105703552599
Si3N4,2,bottom-up,C2/m,2/m,monoclinic,0.0,False,2.841990466308312,2.841999372030405,27.960790443697995
IrPb3,2,bottom-up,P-6m2,-6m2,hexagonal,0.0,False,4.510332,4.510332420757144,24.981638
HoN2,2,bottom-up,C222,222,orthorhombic,0.0,False,3.6878210010499424,3.8439670456549178,24.92707100000004
CoGe3,2,bottom-up,P-6m2,-6m2,hexagonal,0.0,False,3.823243205185998,3.8234946848045235,24.98163803232268
Ge3N4,2,bottom-up,C2/m,2/m,monoclinic,1.0154,False,3.0714935497397264,3.0715462607891406,28.182583786651822
Tl2O3,2,bottom-up,P321,32,trigonal,0.2570999999999999,True,5.980524000148804,5.980430986457114,24.18447097928981
PW,2,bottom-up,C2/m,2/m,monoclinic,0.0,False,3.1326496595454145,3.132605772723564,24.27275824275735
YbI3,2,bottom-up,P-3,-3,trigonal,0.0,False,7.092207054955253,7.095320518702552,22.858727114379214
NO2,2,bottom-up,P-1,-1,triclinic,2.3306999999999993,False,3.514593994891604,9.753540855020509,23.791621836768954
Ru3S4,2,bottom-up,P-3m1,-3m,trigonal,0.0,False,3.536289880011854,3.5362857795633396,27.542022000369354
TaCl5,2,bottom-up,Pmmm,mmm,orthorhombic,0.0,False,4.371328537623244,6.261025296089333,23.745806000007203
Pb3N4,2,bottom-up,C2,2,monoclinic,0.0,False,3.351351981063587,3.3502075781745084,28.33719345266753
ZrP2,2,bottom-up,P-3m1,-3m,trigonal,0.0,False,3.655775018180687,3.656322923303411,21.95047012404347
CdTe,2,bottom-up,P3m1,3m,trigonal,0.0,False,4.672126193189806,4.669348906536631,56.550333243755254
BiCl5,2,bottom-up,Pmmm,mmm,orthorhombic,0.0,False,6.01603250282957,5.327721328347995,23.758606000000217
Ga2O3,2,bottom-up,P-3m1,-3m,trigonal,3.1189000000000004,False,3.0195506000399677,3.0195504897369965,24.62923400043227
CrF5,2,bottom-up,Pmm2,mm2,orthorhombic,0.0,False,3.3912663201270057,7.854318360534247,23.52609195242364
NiC4,2,bottom-up,P1,1,triclinic,0.0,False,4.245763027615211,2.452341262208163,23.05579382003987
Cd3N,2,bottom-up,P6/mmm,6/mmm,hexagonal,0.0,False,5.381489322841269,5.38147011315749,20.000000000002345
WI5,2,bottom-up,Pmmm,mmm,orthorhombic,0.0,False,3.683673250040508,10.55751077904953,23.8220450000064
ZrO2,2,bottom-up,Pmm2,mm2,orthorhombic,2.9693,True,6.893913650002794,6.942470355702119,22.032772000018838
TaCo3,2,bottom-up,P6/mmm,6/mmm,hexagonal,0.0,False,8.169675243764779,8.170124387246267,24.03026300000728
MoI5,2,bottom-up,P2/c,2/m,monoclinic,0.0,False,3.8662345907394067,19.389606704807555,23.524558917967145
PBr3,2,bottom-up,P2_1/c,2/m,monoclinic,2.9429000000000003,False,7.520492833960433,11.598346990123181,23.660050999657084
TaRh3,2,bottom-up,P6/mmm,6/mmm,hexagonal,0.0,False,8.842716103647453,8.84262619089855,24.03026300398564
Ga2O3,2,bottom-up,P321,32,trigonal,2.6869999999999994,False,5.165410024118995,5.165498001257381,24.184471105430152
WI5,2,bottom-up,Pmma,mmm,orthorhombic,0.0,False,3.836406783340741,19.348835804253476,23.526044849744196
Tl2Te3,2,bottom-up,P1,1,triclinic,0.2702000000000001,False,8.165442890318541,7.75326752105219,38.83939180597121
CF2,2,bottom-up,P-6m2,-6m2,hexagonal,2.5485000000000007,False,2.794711009973303,2.794748944010893,23.83800000000086
BrN4,2,bottom-up,P2/m,2/m,monoclinic,0.0,False,3.444290832512451,9.447253652312833,33.91544826323189
Au18S11,2,bottom-up,P1,1,triclinic,0.0,False,4.536723848600882,4.053795319308748,52.398456388322586
CrCl5,2,bottom-up,P2/m,2/m,monoclinic,0.0,False,3.3704289002119596,16.51221194269971,23.538348771706335
Tl2Se3,2,bottom-up,P1,1,triclinic,0.0,False,6.749187745582644,9.368152957659062,36.883191930902235
Al2Se3,2,bottom-up,P1,1,triclinic,0.8347999999999999,False,7.271580320495617,7.194969110153113,38.47541073804471
Ga2Se3,2,bottom-up,P1,1,triclinic,0.9224999999999999,False,7.171615705875499,7.376003377656962,38.547301725795045
BiB,2,bottom-up,P1,1,triclinic,0.0,False,6.3659711069810205,7.128909220396098,19.786006141821172
NCl5,2,bottom-up,P1,1,triclinic,0.0,False,3.068945814047005,9.063647437845137,23.95080708566092
Al13N2,2,bottom-up,C2/m,2/m,monoclinic,0.0,False,6.540458028877871,7.455817784829575,30.353398303680624
P4C3,2,bottom-up,P-6m2,-6m2,hexagonal,0.0,False,5.9308990583982295,5.930099146960446,20.01113500000045
Ga2S3,2,bottom-up,P1,1,triclinic,0.8386,True,6.738133320634776,7.083737926490459,38.55723926668891
O2F,2,bottom-up,P2_1/c,2/m,monoclinic,1.3787000000000003,False,5.861612131854178,7.252968557651587,24.7839143851058
TlSb,2,bottom-up,P4/mbm,4/mmm,tetragonal,0.0,False,10.092872542505775,10.092868542503215,20.000000000013
BiTe,2,bottom-up,Pmc2_1,mm2,orthorhombic,0.0,False,6.4140407500000185,16.585154380000148,23.134393000000262
VIr3,2,bottom-up,P6/mmm,6/mmm,hexagonal,0.0,False,8.742625011247531,8.741992879097262,24.030262980806466
N2O3,2,bottom-up,P1,1,triclinic,0.0,False,3.304443613032155,3.4127697357981384,38.311931124595056
BiBr5,2,bottom-up,Pmma,mmm,orthorhombic,0.0,False,4.128776745179058,15.993050900701123,23.85841989705657
BiO2,2,bottom-up,P1,1,triclinic,0.0,False,7.08536171556067,7.274822659612363,33.04317315491147
MoBr5,2,bottom-up,Pmm2,mm2,orthorhombic,0.0,False,3.347425935575035,17.952821839670744,23.52585516193602
AsO2,2,bottom-up,P-3m1,-3m,trigonal,0.0,False,3.1050003915067386,3.1092501778052535,21.973272504241624
TlI3,2,bottom-up,P-1,-1,triclinic,0.8573,False,4.377843670074237,9.746873233443074,22.930277110939347
Al2Te3,2,bottom-up,P1,1,triclinic,0.0,False,6.816709806423925,8.656770114772502,37.5563513721965
In2Te3,2,bottom-up,P1,1,triclinic,0.3266,False,8.332259974905242,8.489912270138934,38.81735978449872
SeN,2,bottom-up,Pmc2_1,mm2,orthorhombic,0.0129999999999999,False,4.584558461966626,13.842086762390526,23.13439184037046
WO2,2,bottom-up,P1,1,triclinic,1.4078000000000002,False,6.463817940579032,6.279460093996887,34.04331934491732
In2Se3,2,bottom-up,P1,1,triclinic,0.32630000000000003,False,7.5095267256010105,7.703233692491391,38.46135126209914
TaIr3,2,bottom-up,P6/mmm,6/mmm,hexagonal,0.0,False,9.006464053686946,9.002078979209896,24.030263000038445
SrCl2,2,bottom-up,C2/m,2/m,monoclinic,4.3671999999999995,False,4.122457070893464,8.120182886079023,24.49039932271992
TlBi,2,bottom-up,P-1,-1,triclinic,0.0,False,6.916300874344537,6.104721819666233,23.124623910845038
Te4Ru3,2,bottom-up,P-3m1,-3m,trigonal,0.0,False,3.995624030458071,3.994678513615583,27.54202278457717
Zn3P,2,bottom-up,P6/mmm,6/mmm,hexagonal,0.0,False,5.115341000012511,5.115342797105781,20.000000000026724
BeF2,2,bottom-up,C2/m,2/m,monoclinic,8.282399999999999,False,4.724400834622,4.7255578552873585,23.517419851735692
MoCl5,2,bottom-up,Pmmm,mmm,orthorhombic,0.0,False,4.030761970508925,7.016032288675202,23.822045000000074
SnF2,2,bottom-up,P-6m2,-6m2,hexagonal,2.375,False,3.617614250096911,3.61754620504383,23.838000000004445
Sb2Mo,2,bottom-up,C2/m,2/m,monoclinic,0.0,False,6.019685172492163,3.3728793373927566,23.132146630791595
Zn3Bi,2,bottom-up,P6/mmm,6/mmm,hexagonal,0.0,False,5.647576880502595,5.647197781753388,20.00000000006653
CrI5,2,bottom-up,Cmmm,mmm,orthorhombic,0.0,False,7.157824646818682,5.9078297424344415,23.82204248977818
WBr5,2,bottom-up,Pmma,mmm,orthorhombic,0.0018000000000000238,True,3.852606016385013,9.495195217645502,23.52615379801303
CS,2,bottom-up,P2/c,2/m,monoclinic,0.7901999999999998,False,2.7954291189207696,7.319971272828305,22.971359000553218
PPt,2,bottom-up,P-6m2,-6m2,hexagonal,0.0,False,3.883111830000246,3.883828834348994,20.000000000680217
PI5,2,bottom-up,Cmmm,mmm,orthorhombic,0.0,False,6.777683140468799,7.3082222286306395,23.758606058964844
Li2F,2,bottom-up,P-3m1,-3m,trigonal,0.0,False,2.909524000131465,2.909523736326102,23.40784700059008
CrBr5,2,bottom-up,P2/c,2/m,monoclinic,0.0,False,3.7592864759307094,16.24191556659882,23.524595282252186
PbC,2,bottom-up,P3m1,3m,trigonal,0.0,False,3.7746140001298145,3.7746243516685203,20.76974700062591