Formula,No. of Elements,Discovery Process,Space Group,Point Group,Crystal System,Band Gap,Is Gap Direct?,a,b,c
TcI3,2,bottom-up,C2/m,2/m,monoclinic,0.0,False,6.80541824654466,6.805419109093723,21.9424475961781
ThF2,2,bottom-up,P-6m2,-6m2,hexagonal,0.3710000000000001,True,3.59764137,3.597642035762703,24.529133
BP,2,bottom-up,P4/nmm,4/mmm,tetragonal,0.0,False,3.16239137,3.16239137,23.942319
Mg2Cd,2,bottom-up,P4/mmm,4/mmm,tetragonal,0.0,False,3.190415,3.190415,23.983674
HfBr4,2,bottom-up,P1,1,triclinic,3.0846,False,6.591897289943617,7.682354156282109,23.40405362300085
U2S5,2,bottom-up,P2/m,2/m,monoclinic,0.0,False,3.8463566544579906,5.3416669861749115,33.93505164536553
CeSn5,2,bottom-up,Pmmm,mmm,orthorhombic,0.0,False,3.268809,6.559065,23.338286
CuBr,2,bottom-up,Pmma,mmm,orthorhombic,0.6440999999999999,False,3.58281418,3.55994127,23.042555
RhC4,2,bottom-up,P4/nbm,4/mmm,tetragonal,0.0,False,4.50479597,4.50479597,22.924308
ReI3,2,bottom-up,C2/m,2/m,monoclinic,0.09489999999999998,False,6.387460264456993,6.387459792969659,21.895475960271384
TcS,2,bottom-up,P4/nmm,4/mmm,tetragonal,0.0,False,3.80036485,3.80036485,23.119205
Re2Br5,2,bottom-up,P2/c,2/m,monoclinic,0.0,False,6.04880753,6.4687570096478115,25.205843932229765
AuBr,2,bottom-up,Pmma,mmm,orthorhombic,0.0,False,3.95935,3.767053,23.042555
BeSi2,2,bottom-up,P-3m1,-3m,trigonal,0.0,False,2.63836504,2.6383652115002474,24.445951
Cu2Se,2,bottom-up,P2_1,2,monoclinic,0.1271,True,4.946922,4.951486245346744,22.546195577790325
S3N2,2,bottom-up,P2_1/m,2/m,monoclinic,0.0,False,2.6434436,10.219343010337363,25.156710781540298
CeSi2,2,bottom-up,P4/mmm,4/mmm,tetragonal,0.0,False,3.92497251,3.92497251,22.585765
SmSi2,2,bottom-up,P4/mmm,4/mmm,tetragonal,0.0,False,3.97780215,3.97780215,22.592014
MoBr4,2,bottom-up,P-1,-1,triclinic,0.0,False,5.949431075559522,7.216410595920001,23.275352677471943
MoI2,2,bottom-up,R-3m,2/m,trigonal,0.0,False,3.986387,6.920869901883505,21.53185953728233
SnI4,2,bottom-up,P4/mmm,4/mmm,tetragonal,0.0,False,6.00407604,6.00407604,23.993582
Nb2O5,2,bottom-up,P2_1/m,2/m,monoclinic,3.0807,False,3.86999848,10.14736970759383,24.97811949354918
GeI3,2,bottom-up,P1,1,triclinic,0.9914000000000001,False,7.311760675751019,7.353496849618758,24.43844652749869
CuI,2,bottom-up,Pmma,mmm,orthorhombic,0.2278,False,3.81942626,3.8221713,23.042555
LaSi3,2,bottom-up,P6/mmm,6/mmm,hexagonal,0.0,False,5.80478991,5.804790233814506,20.0
Bi2O3,2,bottom-up,P2_1/m,2/m,monoclinic,3.0424,False,4.46971672,8.9237804529012,22.279620652029447
BSb,2,bottom-up,P4/nmm,4/mmm,tetragonal,0.0,False,3.63070999,3.63070999,23.942319
TaF2,2,bottom-up,P-3m1,-3m,trigonal,0.0,False,2.81886386,2.8188640136590086,22.903114
CuF,2,bottom-up,P-6m2,-6m2,hexagonal,0.0,False,3.4678137800000015,3.4678134722381064,20.19552
GaP,2,bottom-up,P-6m2,-6m2,hexagonal,1.1919,False,3.921752,3.9217529878384743,20.0
OsC2,2,bottom-up,P4/mmm,4/mmm,tetragonal,0.0,False,2.91043983,2.91043983,22.803662
TcTe,2,bottom-up,P4/nmm,4/mmm,tetragonal,0.0,False,3.944767,3.944767,23.119205
GaI3,2,bottom-up,Pmc2_1,mm2,orthorhombic,2.2269,False,7.262911,6.8493685,22.61305
CF2,2,bottom-up,P-3m1,-3m,trigonal,1.7438000000000002,False,2.869997,2.8699964808521976,23.73272
Tc3Br8,2,bottom-up,Cm,m,monoclinic,0.009799999999999809,True,7.213188734133677,7.218150024381039,22.111049018977234
BBr,2,bottom-up,P4mm,4mm,tetragonal,1.8285999999999998,False,3.93679478,3.93679478,22.485034
Sb2Pb,2,bottom-up,Pmc2_1,mm2,orthorhombic,0.3305,False,4.40983949,11.78018395,25.607718
BS,2,bottom-up,C2/m,2/m,monoclinic,1.8885,True,3.059413484439297,3.976745555505029,23.46528636802641
Ba2P,2,bottom-up,P-3m1,-3m,trigonal,0.0,False,4.59256632,4.592566888970315,25.233874
Be2Sb,2,bottom-up,P6/mmm,6/mmm,hexagonal,0.0,False,4.29305784,4.293058325531999,23.013137
Te2Pt,2,bottom-up,P2_1/c,2/m,monoclinic,1.4307,False,6.0322774535716785,6.394606343294635,21.103261178202587
RhCl2,2,bottom-up,P-3m1,-3m,trigonal,0.0,False,3.600318,3.6003186301616417,23.069546
La2Pb,2,bottom-up,P-3m1,-3m,trigonal,0.0,False,4.35342434,4.353423706161649,22.695846
CO,2,bottom-up,P4/nmm,4/mmm,tetragonal,0.2214999999999998,False,3.1246571,3.1246571,22.379159
ReI4,2,bottom-up,P2_1/c,2/m,monoclinic,0.0,False,6.13322149,7.600963607220743,23.10649319497588
PrSi5,2,bottom-up,Pmmm,mmm,orthorhombic,0.0,False,3.49337988,6.60722035,23.394498
TlSb3,2,bottom-up,P-3m1,-3m,trigonal,0.005300000000000082,False,8.844396,8.844396831575628,21.198253
AsI3,2,bottom-up,Pmn2_1,mm2,orthorhombic,1.6188999999999996,False,7.065302,8.214036,23.123083
AgCl2,2,bottom-up,P2_1/c,2/m,monoclinic,0.0,False,3.95400219,6.517193087913107,21.631560569088286
ZnCl2,2,bottom-up,P-3m1,-3m,trigonal,4.516299999999999,False,3.57665462,3.576653901061989,23.451494
RhI4,2,bottom-up,P2_1/c,2/m,monoclinic,0.0,False,6.750068598531259,6.882770260460662,23.503952711912028
TeOs,2,bottom-up,P4/nmm,4/mmm,tetragonal,0.0,False,4.09117892,4.09117892,22.77902
AlCl,2,bottom-up,Aem2,mm2,orthorhombic,2.4650999999999996,False,6.01551501,6.00204526,23.140016
HPb3,2,bottom-up,P-3m1,-3m,trigonal,0.0,False,4.96599648,4.9659965249389835,30.11045
FeF3,2,bottom-up,P-31m,-3m,trigonal,3.6847000000000003,False,5.256393831999636,5.256633314139484,22.681606053917726
Be2P,2,bottom-up,P-3m1,-3m,trigonal,0.0,False,3.7043972,3.7043973031367465,23.013137
TcBr4,2,bottom-up,P2_1/c,2/m,monoclinic,0.0,False,5.92623717,7.100476177745479,23.053826033429758
TlTe,2,bottom-up,P-3m1,-3m,trigonal,0.5033000000000003,False,4.49475291,4.4947518214645,24.623155
PdN2,2,bottom-up,P-3m1,-3m,trigonal,0.0,False,5.684542,5.684542189763834,22.860006
Ta2O5,2,bottom-up,Pmn2_1,mm2,orthorhombic,2.6625,False,7.07120797,3.87382873,26.154974
AuI,2,bottom-up,Pmma,mmm,orthorhombic,0.0,False,4.12152933,3.99135735,23.042555
RuPb2,2,bottom-up,P4/mmm,4/mmm,tetragonal,0.0,False,3.294082,3.294082,22.803662
BeC2,2,bottom-up,P-3m1,-3m,trigonal,0.0,False,2.16649,2.1664896734695045,24.664279
CuI2,2,bottom-up,C2/m,2/m,monoclinic,0.0,False,4.016653,6.5608574690862635,21.52132465084173
HfI3,2,bottom-up,P-1,-1,triclinic,0.32830000000000015,False,6.902984739307841,6.89647094877596,24.624688733849197
BeBr2,2,bottom-up,P-3m1,-3m,trigonal,4.2271,False,3.49163097,3.491630646498595,23.529845
Sr5La,2,bottom-up,P1,1,triclinic,0.0,False,4.057222974621557,7.882645414060562,25.327940946743773
Sn2Ru,2,bottom-up,P4/mmm,4/mmm,tetragonal,0.0,False,3.146607,3.146607,22.803662
NiSe2,2,bottom-up,P2_1/c,2/m,monoclinic,1.0722,False,5.43710329,5.682165558925053,21.282412966565104
BeAg,2,bottom-up,P6/mmm,6/mmm,hexagonal,0.0,False,4.40570873,4.405708333669325,24.159589
TlBr3,2,bottom-up,C2/m,2/m,monoclinic,1.7240000000000002,False,6.912535304799825,6.91253625444301,22.727347336160218
BiO2,2,bottom-up,Pmmn,mmm,orthorhombic,0.32020000000000026,False,6.900401,3.323416,25.995831
PI3,2,bottom-up,Pmn2_1,mm2,orthorhombic,1.8506999999999998,False,6.83974626,8.46450777,23.123083
CO,2,bottom-up,Cmme,mmm,orthorhombic,5.5297,False,5.0420778,4.62945917,22.719659
AuF,2,bottom-up,Pmma,mmm,orthorhombic,0.0,False,2.810088,3.32637,23.042555
Tc2Cl7,2,bottom-up,P2/c,2/m,monoclinic,0.09629999999999983,False,5.9922427845689965,11.982844473896376,23.69029
Ga2Se3,2,bottom-up,P-62m,-6m2,hexagonal,1.9693,True,6.687709,6.687709347758842,20.011829
CdF2,2,bottom-up,P-4m2,-42m,tetragonal,3.8549999999999995,False,3.751026,3.751026,22.741369
CS2,2,bottom-up,P-3m1,-3m,trigonal,0.0,False,2.934751,2.934750453445744,23.192892
BS,2,bottom-up,P-6m2,-6m2,hexagonal,2.7868999999999997,False,3.042097,3.0420970051084826,25.019273
BiCl3,2,bottom-up,Pmmn,mmm,orthorhombic,2.917,False,3.93376165,8.57890962,23.123083
NpBr3,2,bottom-up,P-6m2,-6m2,hexagonal,0.026300000000000434,False,5.04178556,5.041786955995479,24.79164
Sr2Co,2,bottom-up,P4/mmm,4/mmm,tetragonal,0.0,False,3.65755784,3.65755784,25.01765
NiN2,2,bottom-up,P-3m1,-3m,trigonal,0.0,False,5.231639000000095,5.231638143713783,22.860006
In3Co,2,bottom-up,P-6m2,-6m2,hexagonal,0.0,False,4.29099342,4.2909928144820935,25.130912
ZrCl4,2,bottom-up,P-1,-1,triclinic,3.4429000000000003,False,6.292577751380059,7.263708105927927,23.092184760868705
PdC4,2,bottom-up,P6/mmm,mmm,hexagonal,0.0,False,2.500583,4.325363,22.903963
GaBi3,2,bottom-up,P-3m1,-3m,trigonal,0.07869999999999999,True,8.79533208,8.795332003226967,21.198253
BiBr3,2,bottom-up,Pmn2_1,mm2,orthorhombic,2.3498000000000006,False,6.21347431,7.99620662,23.123083
RhCl4,2,bottom-up,P2_1/c,2/m,monoclinic,0.0,False,5.799512397507065,6.083835886769316,22.941086180672933
BSe,2,bottom-up,P-1,-1,triclinic,2.5980000000000003,False,3.2662291554820957,9.449090701290608,25.59472803513868
ScF,2,bottom-up,P-3m1,-3m,trigonal,0.0,False,3.24989,3.2498892406211324,26.270831
Tb2Pb,2,bottom-up,P-3m1,-3m,trigonal,0.0,False,3.520592,3.5205919061572586,22.71677
GaN,2,bottom-up,P4/nmm,4/mmm,tetragonal,1.3279999999999998,False,3.77953361,3.77953361,23.942319
YF2,2,bottom-up,P-6m2,-6m2,hexagonal,1.1730999999999998,False,3.403632,3.4036313269825507,23.825805
CS,2,bottom-up,P3m1,3m,trigonal,1.2335000000000003,False,2.82399116,2.8239913984837535,21.478674
TlN3,2,bottom-up,P-3m1,-3m,trigonal,0.4204999999999999,False,5.95235518,5.952355060291132,21.198253
PbI4,2,bottom-up,P4/mmm,4/mmm,tetragonal,0.0,False,6.176296994324107,6.174574,23.81830364218806
AlAs,2,bottom-up,P4/nmm,4/mmm,tetragonal,0.7510999999999997,True,4.03789596,4.03789596,23.942319
Si4Pd,2,bottom-up,P4/nbm,4/mmm,tetragonal,0.0,False,5.945073,5.945513,22.903963
AlAs,2,bottom-up,P-6m2,-6m2,hexagonal,1.2399,False,4.09078404,4.090784700635404,20.0
Re2Cl5,2,bottom-up,P2/c,2/m,monoclinic,0.0,False,5.80055685,6.336927016420726,27.119628328584373
YF2,2,bottom-up,P4/mmm,4/mmm,tetragonal,0.0,False,3.00334689,3.00334689,23.801584
CeC2,2,bottom-up,P4/mmm,4/mmm,tetragonal,0.0,False,3.59784722,3.59784722,22.585765
SnBr4,2,bottom-up,P4/mmm,4/mmm,tetragonal,0.44709999999999983,False,5.4994627,5.4994627,23.993582
Bi2O3,2,bottom-up,Pmn2_1,mm2,orthorhombic,3.0244999999999997,False,4.393098392696,5.642130815693006,23.935017
TaTe,2,bottom-up,P4/nmm,4/mmm,tetragonal,0.0,False,3.92528793,3.92528793,23.448734
HfSi2,2,bottom-up,P4/nmm,4/mmm,tetragonal,0.0,False,3.65290386,3.65314824,25.781726
CeSn2,2,bottom-up,P4/mmm,4/mmm,tetragonal,0.0,False,4.060702,4.060702,22.585765
InBr3,2,bottom-up,Pmc2_1,mm2,orthorhombic,1.5441000000000003,True,6.124363,7.500318,22.61305
W3O8,2,bottom-up,C2/m,2/m,monoclinic,2.6897,False,5.58786173880892,5.5866827587023105,26.247700087686937
PdS,2,bottom-up,P4/nmm,4/mmm,tetragonal,0.0,False,4.20969033,4.20969033,22.999467
Tl3Rh,2,bottom-up,P-6m2,-6m2,hexagonal,0.0,False,4.56893886,4.568938824408164,25.130912
SrAg,2,bottom-up,P6/mmm,6/mmm,hexagonal,0.0,False,4.72058902,4.720589009481353,24.159589
AlN3,2,bottom-up,P-3m1,-3m,trigonal,0.0,False,5.291569,5.291569960246297,21.198253
Ga3Rh,2,bottom-up,P-6m2,-6m2,hexagonal,0.0,False,4.16510007,4.165099588738672,25.130912
CaSn2,2,bottom-up,P-3m1,-3m,trigonal,0.0,False,3.44670561,3.446705878023529,24.664279
Sr2Cd,2,bottom-up,P4/mmm,4/mmm,tetragonal,0.0,False,3.96421153,3.96421153,23.983674
SnBi,2,bottom-up,C2/m,2/m,monoclinic,0.9206000000000001,True,4.48606836,13.168053860401082,24.76005370284436
In3Rh,2,bottom-up,P-6m2,-6m2,hexagonal,0.0,False,4.459114,4.459113497946873,25.130912
GaAs,2,bottom-up,P4/nmm,4/mmm,tetragonal,0.0,False,4.04370434,4.04370434,23.942319
C2O3,2,bottom-up,P2_1/c,2/m,monoclinic,6.0529,True,4.72072227,7.64334435650516,25.553991764548442
CaGe2,2,bottom-up,P-3m1,-3m,trigonal,0.0,False,3.23558918,3.2355891574053444,24.664279
BeAu,2,bottom-up,P6/mmm,6/mmm,hexagonal,0.0,False,4.42981086,4.429810947710887,24.159589
IrI4,2,bottom-up,P2_1/c,2/m,monoclinic,0.0,False,6.729725773970471,6.870808209325444,23.42987796327521
ReTe,2,bottom-up,P4/nmm,4/mmm,tetragonal,0.0,False,3.95203831,3.95203831,23.119205
SCl,2,bottom-up,P-1,-1,triclinic,2.2784000000000004,False,7.243093126553029,8.850102143830487,25.125849311773663
Ba5La,2,bottom-up,P1,1,triclinic,0.0,False,4.1665986784580555,7.973517317607253,25.309842177437915
AlBi3,2,bottom-up,P-3m1,-3m,trigonal,0.06669999999999998,True,8.84589983,8.845899763901443,21.198253
TaF3,2,bottom-up,P-31m,-3m,trigonal,0.0,False,4.85337687,4.853377770083566,22.719179
Ta2O5,2,bottom-up,P2_1,2,monoclinic,3.7051999999999996,False,5.937223,10.984962426421175,24.408319678470967
CuS2,2,bottom-up,P-3m1,-3m,trigonal,0.0,False,3.3256543800000005,3.3447557508943007,23.00969542189619
SCl,2,bottom-up,P-1,-1,triclinic,2.2358000000000002,True,4.019183472213447,8.917673121584285,25.833744090614708
MgSi2,2,bottom-up,P-3m1,-3m,trigonal,0.0,False,2.87319573,2.8731951924642325,24.445951
Sc2Sn,2,bottom-up,P-3m1,-3m,trigonal,0.0,False,3.28026604,3.2802664010146207,25.894945
GaI,2,bottom-up,Pbcm,mmm,orthorhombic,2.2670999999999997,True,6.60886521,6.61583934,23.094001
AsBr3,2,bottom-up,Pmn2_1,mm2,orthorhombic,2.6479,False,6.357099,7.812743,23.123083
P9Cl2,2,bottom-up,P2_1/m,2/m,monoclinic,0.0,False,3.30882013,8.509118678456483,34.24478995462816
InI,2,bottom-up,P4/nmm,4/mmm,tetragonal,2.2083,True,6.91401067,6.90973707,23.140016
IrCl2,2,bottom-up,P-3m1,-3m,trigonal,0.0,False,3.64683213,3.6468330709766645,23.069546
MgAu,2,bottom-up,P6/mmm,6/mmm,hexagonal,0.0,False,4.6081882,4.608187969100581,24.159589
ScCl3,2,bottom-up,Pmmn,mmm,orthorhombic,2.8848,False,3.35681868,9.53804105,24.85506
NiAs2,2,bottom-up,P2_1/m,2/m,monoclinic,0.0,False,3.6330390108014257,4.636150370423289,24.51249039512893
ReBr3,2,bottom-up,P-31m,-3m,trigonal,0.0005999999999999339,True,6.285836902433753,6.285837586173027,22.00367259701792
TeRu,2,bottom-up,P4/nmm,4/mmm,tetragonal,0.0,False,4.10800664,4.10800664,22.77902
NpI3,2,bottom-up,P-6m2,-6m2,hexagonal,0.02220000000000022,True,5.40675745,5.40675916298375,24.79164
GaBi,2,bottom-up,P-6m2,-6m2,hexagonal,0.0,False,4.639946,4.639948504382889,20.0
BCl,2,bottom-up,P4mm,4mm,tetragonal,1.8124000000000002,False,3.85569563,3.85569563,22.485034
CSe,2,bottom-up,P3m1,3m,trigonal,1.4924000000000004,False,3.07087506,3.0709194205655383,21.529291033726
InI3,2,bottom-up,C2/m,2/m,monoclinic,1.692,False,7.288031008825856,7.288030611840926,22.723783612970703
PrSn5,2,bottom-up,Pmmm,mmm,orthorhombic,0.0,False,4.08749,7.00043,23.394498
GeBi2,2,bottom-up,Pmc2_1,mm2,orthorhombic,0.7057000000000002,False,4.32325727,11.80803729,25.607718
Ga2S5,2,bottom-up,P1,1,triclinic,1.8593000000000002,True,3.7495660628123386,7.370398991642601,24.071291010933304
TaI4,2,bottom-up,P4/mmm,4/mmm,tetragonal,0.0,False,5.61894366,5.61894366,23.812503
Si4Ni,2,bottom-up,P4/nbm,4/mmm,tetragonal,0.0,False,5.63009838,5.63461326,22.903963
ThBr2,2,bottom-up,P-6m2,-6m2,hexagonal,0.0,False,3.822717,3.822718087032053,24.529133
PbBr3,2,bottom-up,P1,1,triclinic,0.3407,False,5.417719852915765,8.25440256135744,24.017351545255348
Nb2O5,2,bottom-up,P2_1/m,2/m,monoclinic,2.4962999999999997,False,3.84637904,6.713858391993668,27.122732495184614
MgC2,2,bottom-up,P-3m1,-3m,trigonal,0.0,False,2.67225,2.6722496663524913,24.664279
CS,2,bottom-up,Pmn2_1,mm2,orthorhombic,1.0171000000000001,False,2.78125741,3.96371845,22.785332
Y2Pb,2,bottom-up,P-3m1,-3m,trigonal,0.0,False,4.18884969,4.1888489056092215,22.46647
LaF,2,bottom-up,P-3m1,-3m,trigonal,0.0,False,3.857149,3.8571487325221208,26.270831
B3Rh,2,bottom-up,P-6m2,-6m2,hexagonal,0.0,False,3.48124122,3.4812414596971872,25.130912
PtC3,2,bottom-up,Pbam,mmm,orthorhombic,0.0,False,5.21216955,4.76905806,25.862687
SrSi2,2,bottom-up,P-3m1,-3m,trigonal,0.0,False,3.285608,3.2856080044363174,24.445951
SrPb2,2,bottom-up,P-3m1,-3m,trigonal,0.0,False,3.65488095,3.654881481508875,24.664279
Nb2O5,2,bottom-up,Pmmn,mmm,orthorhombic,3.1838000000000006,False,3.863021,12.387373,24.228771
Be2Co,2,bottom-up,P4/mmm,4/mmm,tetragonal,0.0,False,2.57346458,2.57346458,22.883476
Sr2Zn,2,bottom-up,P4/mmm,4/mmm,tetragonal,0.0,False,3.85273341,3.85273341,23.983674
PrC5,2,bottom-up,Pmmm,mmm,orthorhombic,0.0,False,3.23715245,4.98980928,23.394498
CrI4,2,bottom-up,P-1,-1,triclinic,0.0,False,6.374680285694042,7.452096969370724,23.0001539399988
ScBr,2,bottom-up,P-3m1,-3m,trigonal,0.0,False,3.586907,3.586906245096601,26.270831
PbCl3,2,bottom-up,P1,1,triclinic,0.7680999999999996,False,5.096117294152454,7.434332572210686,24.033664155864646
NdPb2,2,bottom-up,P4/mmm,4/mmm,tetragonal,0.0,False,3.3890407,3.3890407,22.598526
TlP,2,bottom-up,P-6m2,-6m2,hexagonal,0.0,False,4.38037609,4.3803772288609535,20.0
WI2,2,bottom-up,C2/m,2/m,monoclinic,0.0,False,3.65724711,7.224493686389488,21.5284515339485
BiPb,2,bottom-up,P-1,-1,triclinic,0.30380000000000007,True,4.602280649464178,13.566952681660673,24.967982435836642
Bi2Pb,2,bottom-up,Pmc2_1,mm2,orthorhombic,0.268,False,4.56609361,12.01348547,25.607718
InI,2,bottom-up,Pbcm,mmm,orthorhombic,2.2208,False,6.890413,6.916044,23.094001
PdO2,2,bottom-up,P-3m1,-3m,trigonal,1.4924999999999997,False,3.081456463001764,3.081481319748361,21.904910996393987
Sr5Y,2,bottom-up,P1,1,triclinic,0.0,False,4.052981855003302,7.852714316935323,25.337204891685133
WBr4,2,bottom-up,P1,1,triclinic,0.4232999999999998,False,6.305610441453618,6.633129725924837,22.752286960094974
CaC2,2,bottom-up,P-3m1,-3m,trigonal,0.0,False,3.30757452,3.3075740356925207,24.664279
ZrI3,2,bottom-up,P-1,-1,triclinic,0.31909999999999994,False,6.987272394248416,6.980688970573463,24.272501247582333
RhS,2,bottom-up,P4/nmm,4/mmm,tetragonal,0.0,False,3.84659505,3.84659505,22.797818
Te3N2,2,bottom-up,P-3m1,-3m,trigonal,0.0,False,3.48100879,3.4810083865848656,27.040305
AlI3,2,bottom-up,Pmc2_1,mm2,orthorhombic,1.8535,True,7.63585866,6.89560062,22.61305
IrC3,2,bottom-up,P4/mbm,4/mmm,tetragonal,0.0,False,4.63309744,4.63309744,25.635832
B2S5,2,bottom-up,C2/m,2/m,monoclinic,1.3383999999999998,False,3.18761039,6.869356486552175,24.107626084077822
CCl2,2,bottom-up,P-3m1,-3m,trigonal,1.7633999999999999,False,3.300281,3.3002810892422483,23.73272
Re3Br8,2,bottom-up,C2,2,monoclinic,0.14900000000000002,False,7.204701312727272,7.207164052630561,22.16835746676302
TcBr3,2,bottom-up,P-31m,-3m,trigonal,0.0,False,6.283796278695801,6.2837969269759455,22.009886807082435
CrO3,2,bottom-up,Pm,m,monoclinic,1.2511,False,3.202072,4.036872121496172,22.240292501402493
CSe,2,bottom-up,Aem2,mm2,orthorhombic,0.4776,False,3.337724333514977,3.3377245346244497,22.841143855430975
P9Br2,2,bottom-up,P2_1/m,2/m,monoclinic,0.0,False,3.138833,9.860571117464596,33.19316219562218
CePb2,2,bottom-up,P4/mmm,4/mmm,tetragonal,0.0,False,3.20591172,3.20591172,22.585765
EuPb2,2,bottom-up,P-3m1,-3m,trigonal,0.0,False,3.4910948200000074,3.4910954940829373,24.040331
NiPb4,2,bottom-up,P4/nbm,4/mmm,tetragonal,0.0,False,6.62694019,6.63333654,22.903963
Se3N2,2,bottom-up,P-3m1,-3m,trigonal,0.0,False,3.1947943800000003,3.1947948196715164,27.395711
Gd2Cl3,2,bottom-up,C2/m,2/m,monoclinic,0.0,False,3.85333505,9.65249030350945,26.04577816684111
BCl3,2,bottom-up,C2/m,2/m,monoclinic,4.7078,True,5.207253510552692,7.53947875433162,23.594778876268112
BeSn2,2,bottom-up,P-3m1,-3m,trigonal,0.0,False,3.29314707,3.2931468637720394,24.664279
Mg2As,2,bottom-up,P-3m1,-3m,trigonal,0.0,False,4.12031259,4.120312424081567,23.013137
SrI2,2,bottom-up,P-4m2,-42m,tetragonal,4.113,True,5.33538147,5.33538147,22.656191
HfTe3,2,bottom-up,P2_1/m,2/m,monoclinic,0.0,False,3.97641522,5.961699985126277,25.98885045573944
SnBi2,2,bottom-up,Pmc2_1,mm2,orthorhombic,0.5279999999999999,False,4.49828103,12.05865731,25.607718
ScI,2,bottom-up,P-3m1,-3m,trigonal,0.0,False,3.78968781,3.7896884161451885,26.270831
B2Se5,2,bottom-up,P-1,-1,triclinic,0.7210999999999999,False,3.440105483648841,7.450289357043723,24.13719084942307
S3N2,2,bottom-up,P2_1/m,2/m,monoclinic,0.0,False,2.598002,9.795762297510592,26.320880840428803
SbI4,2,bottom-up,P-1,-1,triclinic,0.0,False,8.230079747720211,6.609975109976606,23.187840311836915
BI3,2,bottom-up,Pmc2_1,mm2,orthorhombic,2.2385,True,6.860417,8.370306,22.61305
GeBr3,2,bottom-up,P1,1,triclinic,2.0141999999999998,True,6.449459961066189,9.410927379751175,24.24130404101447
OsS,2,bottom-up,P4/nmm,4/mmm,tetragonal,0.0,False,3.92401412,3.92401412,22.77902
Au18Se11,2,bottom-up,P1,1,triclinic,0.0,False,4.864860818552526,4.2993056101452884,52.77210232685009