Formula,No. of Elements,Discovery Process,Space Group,Point Group,Crystal System,Band Gap,Is Gap Direct?,a,b,c
CrCu(PS3)2,4,top-down,P2_1,2,monoclinic,1.0128,False,5.966607810000653,10.345676010001169,23.347377
Te6Br2O11,3,top-down,Pmma,mmm,orthorhombic,2.4001,False,6.81267715,15.68428692,24.023197
BaTl(SnO3)2,4,top-down,Pmmn,mmm,orthorhombic,0.0,False,3.8715645626302213,3.902264110410341,60.406033
VOF3,3,top-down,Pca2_1,mm2,orthorhombic,3.1697000000000006,True,7.31183954,8.19032652,22.993871
HgI2,2,top-down,P-4m2,-42m,tetragonal,1.9006000000000003,False,8.83166487,8.83166487,26.753903
Zn2In2S5,3,top-down,P3m1,3m,trigonal,0.0,False,3.90105553,3.9010553772832477,32.643531
Bi2O3,2,top-down,Pm,m,monoclinic,2.3691,False,3.706102152101332,5.479640465782257,21.90688774966778
BaCaI4,3,top-down,P2_12_12,222,orthorhombic,3.9699,True,7.01694468,8.05098302,28.74679543
PbWO4,3,top-down,Pmna,mmm,orthorhombic,2.4914,False,5.54037782,7.96059632,25.534593
TlSbO3,3,top-down,P312,32,trigonal,2.8982,False,5.35577393,5.355774376420484,26.24516219
NbTlBr4O,4,top-down,Pmm2,mm2,orthorhombic,1.2074000000000003,False,4.00992281,7.698798979019454,23.69096450419624
InSb2S4Cl,4,top-down,P2_1/m,2/m,monoclinic,1.4623,False,3.8716963621579685,17.817535721711838,23.48638561815018
Fe4Cu2S7,3,top-down,Pmma,mmm,orthorhombic,0.0,False,5.10981228,8.27626654,28.863737
FeWClO4,4,top-down,P4/nmm,4/mmm,tetragonal,2.4814000000000007,True,6.78929332,6.78929332,27.522495
Si3Bi2O9,3,top-down,P-6,-6,hexagonal,4.2462,False,7.02873536,7.028735470449019,24.32568376
GeTe,2,top-down,P3m1,3m,trigonal,1.7502,False,3.94557923,3.9455797643918182,21.93555489
SnBrF,3,top-down,P4/nmm,4/mmm,tetragonal,2.3061999999999996,False,4.01710375,4.01710375,25.94460435
SbOF,3,top-down,Pmn2_1,mm2,orthorhombic,3.1799999999999997,False,3.52984129,4.03252145,24.059527
TiPb9O11,3,top-down,P4,4,tetragonal,2.773,False,8.96281621256673,8.963417364025897,22.939478
UTeO,3,top-down,P4/nmm,4/mmm,tetragonal,0.0,False,3.8688252,3.8688252,25.634685
Ba2Ti3O7,3,top-down,Pmm2,mm2,orthorhombic,0.0,False,3.9345752956516447,3.995921530851531,28.149419
Bi2PbSe4,3,top-down,P-3m1,-3m,trigonal,0.9501000000000001,False,4.22066838,4.220667417905234,30.76593735
HgINO3,4,top-down,Pmc2_1,mm2,orthorhombic,2.4063,True,5.37085174,7.11500602,23.713363
Zn(InS2)2,3,top-down,P3m1,3m,trigonal,0.0,False,3.9127112,3.9127104900553027,29.538885
TiBi2O5,3,top-down,Pmmn,mmm,orthorhombic,1.9854,False,4.00352893,10.26390312,24.61837
Lu2Te5O13,3,top-down,P1,1,triclinic,3.0785,False,6.880869424305254,8.629720982956545,24.841430158154903
MnSb2F12,3,top-down,P-1,-1,triclinic,3.1845,False,5.1644760106172,5.511941613685638,27.452224
Zn2Ag2O5,3,top-down,Pmc2_1,mm2,orthorhombic,0.0,False,3.6567420454627886,6.315633836239194,29.044468
TiV2CrO10,4,top-down,P-4m2,-42m,tetragonal,1.4588999999999999,True,6.60244109,6.60244109,22.26315606
Sc2Te5O13,3,top-down,P-1,-1,triclinic,3.0639000000000003,False,6.627228232735006,8.603271499424675,30.94171
Mg(SbO2)2,3,top-down,Pmc2_1,mm2,orthorhombic,1.3631000000000002,False,3.0659287504386397,9.595501674828858,24.237914277950516
C,1,top-down,P6/mmm,6/mmm,hexagonal,9.999999999976694e-05,True,2.46495455,2.464955066423386,19.99672917
Ba2LiN,3,top-down,P-4m2,-42m,tetragonal,0.0,False,8.17984935,8.17984935,26.784964
Li3Fe2F9,3,top-down,P-6,-6,hexagonal,4.1042000000000005,True,5.2994939471292515,5.30005964151823,26.797021
Ti3H2O7,3,top-down,P1,1,triclinic,2.9741,False,3.7423701759308723,9.435579156278246,27.635821601183235
CoTeO4,3,top-down,P2/m,2/m,monoclinic,1.0546999999999995,True,3.0926168700546777,5.4701432600349,22.186584
Fe(PS3)2,3,top-down,C2,2,monoclinic,0.06479999999999997,False,5.796684594788258,5.79668486518133,23.127066
Re3Se4Cl,3,top-down,P-1,-1,triclinic,1.2469999999999999,False,6.67490496275685,6.707188774381715,28.041333
ZnBi2O5,3,top-down,Pmma,mmm,orthorhombic,0.0,False,4.00625542,12.13054887,25.300532
Ga2Fe2S5,3,top-down,P-3m1,-3m,trigonal,0.0,False,3.60866603,3.6086660300298767,32.011905
Sb2WO6,3,top-down,P2_1/c,2/m,monoclinic,1.1309999999999998,False,4.86296670204874,5.613386735122744,28.245424812233985
VTeO4,3,top-down,P2_1/c,2/m,monoclinic,2.3885999999999994,False,5.482605991072474,13.51368696,26.262854640093945
PuIO,3,top-down,P4/nmm,4/mmm,tetragonal,0.0,False,3.93908275,3.93908275,25.94743206
Sb4O5F2,3,top-down,P2_1/c,2/m,monoclinic,3.4149000000000003,False,5.21485798,13.35795288,25.53076
ReS2,2,top-down,P-1,-1,triclinic,1.4247999999999998,True,6.421553002027593,6.519646628181166,23.6042054197199
K(MoO3)3,3,top-down,P2/m,2/m,monoclinic,0.4659,False,6.54382931,7.87655371,29.146946
Ti3H2O7,3,top-down,P-1,-1,triclinic,2.9322,False,3.7560441864308314,9.443569824810533,28.665590501158565
MgCl2,2,top-down,P-4m2,-42m,tetragonal,5.3366,False,3.86920442,3.86920442,22.656191
KCrClO3,4,top-down,P2_1/c,2/m,monoclinic,2.7735999999999996,False,7.14619205,7.72743604,27.404686
TaF5,2,top-down,Pmma,mmm,orthorhombic,4.3385,True,3.63149449,8.36041571,23.5587701
CdHClO,4,top-down,P3m1,3m,trigonal,2.5717999999999996,True,3.6695299,3.6695295247108675,23.514731
Cr2S5,2,top-down,Pmmn,mmm,orthorhombic,0.29510000000000014,False,4.21519277,13.551546318963775,25.36360768499047
Mn2F7,2,top-down,P2/c,2/m,monoclinic,0.21509999999999962,True,5.131129561986892,9.869667500647562,23.31022974
VOF3,3,top-down,P1,1,triclinic,2.7498000000000005,False,5.543471012130352,10.549699301564628,23.326209
Sr2CrCu2O7,4,top-down,Pmc2_1,mm2,orthorhombic,0.0,False,5.134773011760049,5.279817538727019,29.486778
CrAgSe2,3,top-down,P3m1,3m,trigonal,0.0,False,3.40123194,3.4012317631549904,26.88408252
LiTeO3,3,top-down,P2,2,monoclinic,2.5377,False,5.194824215459035,5.071287500239866,23.769551
H2WO4,3,top-down,Pmn2_1,mm2,orthorhombic,1.4939999999999998,True,5.30884773,5.34731016,25.41158497
Zn2W2O5,3,top-down,Pm,m,monoclinic,0.0,False,3.43783893,5.0786573635286505,24.138546071849575
Zn(SbO2)2,3,top-down,C2,2,monoclinic,2.3841,False,3.396919241379796,6.391620431276248,27.682346
CoSe,2,top-down,P4/nmm,4/mmm,tetragonal,0.0,False,3.70684105,3.70684105,22.797818
AuSe,2,top-down,C2/m,2/m,monoclinic,0.0,False,3.75861213,6.502316320607961,25.208472
Bi2O3,2,top-down,P1,1,triclinic,1.0835,False,3.933062964760897,3.8869511927498346,38.260804
Mg2Mo3O8,3,top-down,P2/m,2/m,monoclinic,1.4460000000000002,False,5.48995034,6.17555821,24.43916
Ca(SbO2)2,3,top-down,P2_1/m,2/m,monoclinic,2.2005,True,3.3669393737656015,11.142026435900648,24.218689
Mg2Al2Se5,3,top-down,P-3m1,-3m,trigonal,1.2614999999999998,True,3.90061192,3.900611841951446,32.80069374
Y2Te5O13,3,top-down,P-1,-1,triclinic,3.0667,False,7.0195502742599665,8.620603781804594,31.022942
Mg2Ag2O5,3,top-down,Pmm2,mm2,orthorhombic,0.0,False,4.020371900776565,4.240176592476756,23.309319
CaP(H2O3)2,4,top-down,P-1,-1,triclinic,0.13870000000000005,False,5.771507101824745,6.441824395033601,27.403785
Ta3Te14Pd3,3,top-down,P2_1/m,2/m,monoclinic,0.0,False,3.78821274,22.13739029,31.274287
Bi3Se4,2,top-down,P-3m1,-3m,trigonal,0.0,False,4.32501976,4.325019158952683,30.18159149
Sr3Co2S2O5,4,top-down,P4/mmm,4/mmm,tetragonal,0.0,False,3.97345896,3.97345896,28.65057
Fe(HO)2,3,top-down,P-3m1,-3m,trigonal,0.0,False,3.27669604,3.2766963854403306,24.017267
Zn2SeCl2O3,4,top-down,P2_1/c,2/m,monoclinic,4.102,True,7.713244332259107,10.36858881,25.928442042012396
VZnF4,3,top-down,P-1,-1,triclinic,0.0,False,4.799230619234005,5.730955367899952,26.012946
Ti3H2O7,3,top-down,P2_1,2,monoclinic,2.5606000000000004,False,3.80335732,9.447531759720642,27.881819443315447
Be(BC)2,3,top-down,Pmm2,mm2,orthorhombic,0.0,False,4.66790253,5.45185585,23.639146
TiO2,2,top-down,P6/mmm,6/mmm,hexagonal,0.0,False,3.44085259,3.440851837072438,23.2501016
InBr3,2,top-down,P-31m,-3m,trigonal,2.9321000000000006,False,6.79193248,6.791259071101578,23.172576
Li2BiO3,3,top-down,P2/m,2/m,monoclinic,0.0,False,3.417178223823743,4.170137517716256,26.840883
Sb2P3(HO3)3,4,top-down,P-1,-1,triclinic,3.7504,False,8.920779110676229,9.123719467139598,28.059914
ZrPbF6,3,top-down,Cmme,mmm,orthorhombic,5.3222000000000005,True,6.804611152335657,6.804611629580011,25.757173
CuHgSBr,4,top-down,Pmc2_1,mm2,orthorhombic,0.5497999999999998,False,4.02179819,10.01983447,28.950887
Lu2Te5O13,3,top-down,P-1,-1,triclinic,3.1633,False,6.852647524617962,8.606137243492581,30.604438067928186
V2Re2O11,3,top-down,P1,1,triclinic,1.2830999999999992,False,6.3146332916817425,7.61804953984463,24.670242
Sb2Te2Se,3,top-down,P-3m1,-3m,trigonal,0.6395000000000001,False,4.2334606,4.233460352731986,27.085986
CuBiO2,3,top-down,P2_1/m,2/m,monoclinic,1.4230999999999998,False,3.5322945,6.153099038232241,23.494111822942177
FePS3,3,top-down,P-31m,-3m,trigonal,0.0,False,5.910634118894159,5.926287103897657,23.18243687067471
MoO3,2,top-down,Pc,m,monoclinic,0.6776,True,5.29255085,5.283677334373803,22.229433922729925
Mg3P2(HO)16,4,top-down,P2/m,2/m,monoclinic,3.7554000000000003,False,4.675072102817393,10.08798902731636,27.546475
Ta3(OF)5,3,top-down,Pmmm,mmm,orthorhombic,2.2029000000000005,False,3.93683679,4.00671502,31.577494
Nb2TlPS10,4,top-down,Pc,m,monoclinic,1.3499,False,6.9904721591996966,12.904704458260971,28.929753
BiPPbO5,4,top-down,P-1,-1,triclinic,3.5528,False,6.901807382026439,7.834702440467025,25.528392
HoTe2ClO5,4,top-down,P2/c,2/m,monoclinic,2.8939,True,7.605935811131869,7.912312127417934,28.405071
NaBF4,3,top-down,Pmmn,mmm,orthorhombic,7.533500000000001,True,6.61714589,6.56602734,22.81543
Cr3Sb5O16,3,top-down,Cm,m,monoclinic,0.0,False,6.12923614280765,6.129236279106663,28.07295534495132
Zn,1,top-down,P6/mmm,6/mmm,hexagonal,0.0,False,2.55520306,2.5552030139774184,20.02117462
Si2H2O5,3,top-down,Pc,m,monoclinic,5.7003,False,5.22538763,5.4844322,25.54161
CaP2H6O7,4,top-down,P-1,-1,triclinic,4.9499,False,6.749552229975056,7.006235682696822,29.506755
Mg3Si4(HO6)2,4,top-down,P-1,-1,triclinic,5.3821,True,5.341590731310981,5.34000994905881,26.549466586739026
NiP2,2,top-down,P4/mbm,4/mmm,tetragonal,0.07230000000000025,True,5.56706473,5.569290894625112,19.064833693451764
GaS,2,top-down,P-3m1,-3m,trigonal,2.3015,False,3.63112906,3.631128757709487,24.62312
Y2(CuO2)3,3,top-down,C2/m,2/m,monoclinic,0.0,False,3.52151552,6.29110203581219,26.108857
Si2O5,2,top-down,Pmna,mmm,orthorhombic,0.0,False,5.19381963,5.09084239,24.876722
CrCuO4,3,top-down,Pmma,mmm,orthorhombic,0.11639999999999961,False,5.41460491,5.80378598,24.27758
MgPSe3,3,top-down,P-31m,-3m,trigonal,2.4219,False,6.44616245,6.44616247967472,23.42040539
MoN2,2,top-down,C2/m,2/m,monoclinic,1.2571999999999997,False,3.60617269,5.652035029766811,22.496499
Cd,1,top-down,P6/mmm,6/mmm,hexagonal,0.0,False,2.92418322,2.9241831820332904,20.0
Zr3(Al2C3)2,3,top-down,P-3m1,-3m,trigonal,0.0,False,3.3382951,3.3382952567268327,34.566825
Zn2Co3O8,3,top-down,P2/m,2/m,monoclinic,0.0015000000000000568,False,5.06592505,5.77269656,24.167771
NbV3O10,3,top-down,P-4m2,-42m,tetragonal,1.6676000000000002,True,6.66507227,6.66507227,22.2368208
RuF4,2,top-down,P2_1/c,2/m,monoclinic,0.5457999999999998,False,4.982990168158808,5.4359534968682555,23.37323
IClOF,4,top-down,P2_1/c,2/m,monoclinic,1.9772999999999998,False,7.08110183,7.496068294137462,30.590955855235613
K2CoSe2,3,top-down,Pccm,mmm,orthorhombic,0.0,False,6.18897183,6.6565729,24.08665883
CoAsS,3,top-down,Pca2_1,mm2,orthorhombic,0.0,False,4.851718631030569,7.181149457733658,23.424066
Sr2Cu2NiO7,4,top-down,Pmc2_1,mm2,orthorhombic,0.0,False,5.099267412253715,5.13215628792541,29.484562
SrCuBiO4,4,top-down,P4/mmm,4/mmm,tetragonal,0.0,False,3.57787323,3.57787323,33.165328
Mg(BH4)2,3,top-down,Pmc2_1,mm2,orthorhombic,6.5946,False,4.29526639,8.32391521,26.196286
CuCClO,4,top-down,Pmn2_1,mm2,orthorhombic,2.4835000000000003,False,3.64414501,5.02245246,27.290793
Mn5O9F,3,top-down,P1,1,triclinic,0.7039999999999997,False,5.0997205134667745,7.82093851709996,22.14458318863421
LiH2NO3,4,top-down,Pc,m,monoclinic,2.7443,False,3.282269818226776,6.132660718741916,25.988966
Tl2O,2,top-down,P-3m1,-3m,trigonal,0.9394999999999998,False,3.5517380143179924,3.551737707209935,23.25268824767825
Cr3O8,2,top-down,P-3m1,-3m,trigonal,0.0,False,5.75989062,5.759890602731713,22.000803
Si2H2O5,3,top-down,P1,1,triclinic,2.8535999999999997,True,5.00664174352212,6.116657619609069,26.071936
TlSbO3,3,top-down,P-31m,-3m,trigonal,2.9522000000000004,False,5.38513201,5.3851321583182585,25.29592347
InTeO3F,4,top-down,P2_1/c,2/m,monoclinic,3.5071000000000003,True,5.47343573,7.87386034,26.310575
Ba2Ni3O7,3,top-down,P2/m,2/m,monoclinic,0.0,False,3.7054886577721855,3.7736281235587525,29.49381925234605
SbO2,2,top-down,P2_1/m,2/m,monoclinic,2.8346999999999998,False,5.9218894329563705,6.534158251654242,22.642386
Sr2CoSO3,4,top-down,P4/nmm,4/mmm,tetragonal,0.0,False,4.002637192923016,4.001907571576185,30.926966
HgIBr,3,top-down,Cm,m,monoclinic,2.2285999999999997,False,4.27353210643715,4.273531792741699,23.441293366808722
Co2SbO6,3,top-down,P-31m,-3m,trigonal,0.0,False,5.225619793128226,5.26029055143667,21.713738722341265
Sn3(P2O7)2,3,top-down,P-1,-1,triclinic,2.9313000000000002,False,5.582253990931705,7.0435710449363045,26.711531046238136
Hg3Au,2,top-down,P6/mmm,6/mmm,hexagonal,0.0,False,5.86364194,5.863641822338346,20.0
Bi4O5F2,3,top-down,P2_1/c,2/m,monoclinic,3.4844999999999997,False,5.51092488,13.61537816,26.046078
Ca(BiO2)4,3,top-down,Pm,m,monoclinic,0.7444000000000002,False,3.430868203098731,9.613542012885215,24.927978
Tl2S,2,top-down,P3,3,trigonal,1.4533,True,12.18332977000001,12.18332932494709,23.564478
Ga2Te3,2,top-down,Cm,m,monoclinic,0.0,False,4.13912792,7.288163665044585,29.365488
SmGa2Co,3,top-down,P4/mmm,4/mmm,tetragonal,0.0,False,4.07164604,4.08576121,27.07275026
RbPbF3,3,top-down,P-1,-1,triclinic,4.0259,True,4.6733479592339116,4.676635004748431,36.830090300141855
K2U3(IO5)4,4,top-down,P-1,-1,triclinic,1.8221999999999998,False,7.063966377970701,7.998255743724407,30.108680288903265
Ge3(Te3As)2,3,top-down,P-3m1,-3m,trigonal,0.502,False,4.18160185,4.181601723213574,37.355952
Mn(CoO3)2,3,top-down,C2/m,2/m,monoclinic,1.4554999999999998,False,2.87188821,7.541020802237173,21.901703
LaPb6BrO7,4,top-down,Pmma,mmm,orthorhombic,2.1613,False,8.17727704,9.57664349,27.45529528
Pb(ClO2)2,3,top-down,P4/nbm,4/mmm,tetragonal,1.6046,False,6.02023924,6.02392639,24.519989
La2(BiO2)7,3,top-down,P1,1,triclinic,0.0,False,6.9820413931412615,6.947132712671282,26.688957
AgBiO2,3,top-down,P2/m,2/m,monoclinic,0.03949999999999998,False,4.03233178,4.03056646,26.421476
Zn2Cr3O8,3,top-down,P2/m,2/m,monoclinic,0.6058999999999997,False,5.13372256,5.87641603,24.172501
Mg3(HO2)2,3,top-down,P-3m1,-3m,trigonal,2.5671999999999997,True,3.0494207,3.0494208384562884,28.961292
BaYSn4O7,4,top-down,P3m1,3m,trigonal,0.0,False,6.43635237,6.4363532062862685,23.863488
NbSe3,2,top-down,P2_1/m,2/m,monoclinic,0.0,False,3.52195154,15.835343934569398,27.98783286522694
KH(CN2)3,4,top-down,P-1,-1,triclinic,0.05710000000000015,False,3.6729695648959275,8.826658798432833,28.112894
Mg(AlSe2)2,3,top-down,P-3m1,-3m,trigonal,1.2177,True,3.90535974,3.9053596224309985,29.62724992
BaV4O8,3,top-down,P-31m,-3m,trigonal,0.0,False,5.65098438,5.650985041152008,24.532953
MgPS3,3,top-down,P-31m,-3m,trigonal,3.0539999999999994,False,6.09257586,6.094063803576523,23.294668
MnCoO4,3,top-down,P2/m,2/m,monoclinic,0.0,False,2.9108470901097747,5.0477640390985,22.016872318513535
Ca(SnO2)2,3,top-down,Pmmn,mmm,orthorhombic,3.1443,False,6.35308117,11.83318065,25.541742
VCl2O,3,top-down,Pmmm,mmm,orthorhombic,1.0705999999999998,False,3.49539035,3.63245729,23.33089924
CaTi4O9,3,top-down,P4/n,4/m,tetragonal,2.9668,False,8.5255057,8.5255057,26.682466
Li4Co(PO4)2,4,top-down,P-1,-1,triclinic,3.0277000000000003,False,4.848666801789925,6.097854810267427,24.54538
Ti3H2O7,3,top-down,Pm,m,monoclinic,2.8388000000000004,False,3.77119251,9.3598182,29.381533
Mn(PO4)2,3,top-down,P-1,-1,triclinic,0.0,False,4.77930271721155,4.937374486508728,26.001222
CrSiTe3,3,top-down,P-31m,-3m,trigonal,0.5923999999999998,False,6.835047800000001,6.8350485209100444,23.449376
TlFeSe2,3,top-down,C2/m,2/m,monoclinic,0.0,False,5.22267755,6.349308386667443,24.409286
KB(CO2)4,4,top-down,Pmma,mmm,orthorhombic,2.9249,True,8.20120899,11.03891791,22.83867176
HfSnO3,3,top-down,P-31m,-3m,trigonal,3.5769,False,5.417321140298715,5.417287992974233,24.419966
Nb2CrO8,3,top-down,P2/c,2/m,monoclinic,0.48800000000000043,True,4.9074976772539,5.954751041319811,27.47357
VF4,2,top-down,P2_1/c,2/m,monoclinic,1.9062999999999999,True,4.91804213,9.65755708,24.488841
TiOF2,3,top-down,P2_1,2,monoclinic,3.8321,False,5.15214772547587,8.77591184,26.176387807306536
Na2H6PtO6,4,top-down,P-3,-3,trigonal,3.0411,True,5.7445527300000006,5.744553080043152,23.754567
CaSb2O5,3,top-down,Pmm2,mm2,orthorhombic,0.0,False,3.813154413948912,5.095202087601326,24.11001385740087
LiCuO,3,top-down,Pmma,mmm,orthorhombic,1.2528,False,3.5343092,5.23059665,21.8965546
LiAg(CO2)2,4,top-down,P2_1,2,monoclinic,3.0591,False,5.31968617,10.788915724530444,20.49481848680975
KV4O10,3,top-down,Amm2,mm2,orthorhombic,0.0,False,3.67060832,6.011699036074877,28.291153
Ta2TiZn2O8,4,top-down,P-1,-1,triclinic,0.6076,False,5.040469983950391,5.722680175657218,28.934633738460665
PtS2,2,top-down,P-3m1,-3m,trigonal,1.8226999999999998,False,3.55914874,3.559148709959851,22.66250717
MgMn2O5,3,top-down,Pmmn,mmm,orthorhombic,0.0,False,3.8063364,11.18142357,24.009411
CrTe3,2,top-down,Pmna,mmm,orthorhombic,0.27949999999999986,False,11.45523515,11.629382777032015,24.424894780321164
Li4VF8,3,top-down,P2,2,monoclinic,2.0226,True,5.033339136215485,5.177170484070625,25.805363
S(IO3)2,3,top-down,C2,2,monoclinic,2.1161,False,4.7171619,7.991718358897514,21.85722
BaAlSn4O7,4,top-down,P3m1,3m,trigonal,0.0,False,6.07021313,6.070212971730209,23.591301
Bi2Pb2Se5,3,top-down,P-3m1,-3m,trigonal,0.806,False,4.25143457,4.251434402827547,34.26055175
Ca3Zn,2,top-down,Pmmn,mmm,orthorhombic,0.0,False,3.98814598,9.94777985,24.8035
Li2P4WO13,4,top-down,P-1,-1,triclinic,3.0854999999999997,True,5.082693221673679,7.978210524439565,32.873337
SmH2ClO2,4,top-down,P2_1/m,2/m,monoclinic,4.4649,True,3.69222307,6.349420745544926,25.7009321619404
LiCoPO4,4,top-down,P-3,-3,trigonal,2.9731,False,5.155453860000001,5.155454544019881,26.379519
Ba2Tl2CuO6,4,top-down,Pmna,mmm,orthorhombic,0.0,False,5.56798315,5.55364885,33.62256582
YGe3,2,top-down,Pmm2,mm2,orthorhombic,0.0,False,4.19344506,3.9220386,23.198713
Sb5O7F,3,top-down,P-1,-1,triclinic,3.0669,False,4.130001582036304,12.778547041329336,26.416393
TlRe6Se8Cl3,4,top-down,P-1,-1,triclinic,1.3991999999999998,False,9.029839142350795,11.031697833659745,28.361839
LiVF4,3,top-down,Pmma,mmm,orthorhombic,2.1677,False,6.18008862,7.00184648,22.630637
SbPO4,3,top-down,Pmc2_1,mm2,orthorhombic,3.1908000000000003,True,4.73742595,9.70217864,22.399367
ZnCu(SiO3)2,4,top-down,P2/c,2/m,monoclinic,0.14730000000000043,True,5.014113359658304,9.604287614507651,24.955317
Re2O7,2,top-down,Pmma,mmm,orthorhombic,0.0,False,5.23648414,5.38721113,27.06110639
GaGeTe,3,top-down,P-3m1,-3m,trigonal,0.7689,False,4.11314323,4.113143861509543,28.289136
FeCoO4,3,top-down,P2/m,2/m,monoclinic,0.0,False,2.91208468,5.01724463,21.890423
SrLaBr5,3,top-down,P2_1/m,2/m,monoclinic,3.1172,False,4.39307789,15.99443172,25.012774
TcO3F,3,top-down,P2_1/c,2/m,monoclinic,2.4938000000000002,False,5.05361637,9.29669762,24.672042
LiFeP2O7,4,top-down,P-1,-1,triclinic,2.5292,False,7.406964082041404,8.594646878783896,25.211376
Li2V(PO4)2,4,top-down,P-3,-3,trigonal,0.0,False,4.897767594786523,4.876504409578945,30.104583
SrLaI5,3,top-down,P2_1/m,2/m,monoclinic,2.3629,False,4.59941005,17.21407433850943,25.510512564484618
BaTl(CoO3)2,4,top-down,Pm,m,monoclinic,0.0,False,3.6745497471557593,3.682933702889346,64.918417
AlBMo,3,top-down,Pmma,mmm,orthorhombic,0.0,False,3.04493741,3.13198054,25.569286
CrO2,2,top-down,P6/mmm,6/mmm,hexagonal,0.0,False,3.3105756300000015,3.3105765925307375,23.300608
Li2Cr3(CO3)6,4,top-down,P-1,-1,triclinic,0.0,False,4.72777598153745,12.51889543724533,23.601052103705
SrH2O3,3,top-down,Pmc2_1,mm2,orthorhombic,3.0278,False,3.69666768,5.953761936418072,21.116066028463564